<?xml version="1.0"?>
<VTKFile type="UnstructuredGrid"  version="0.1"  >
<UnstructuredGrid>
<Piece  NumberOfPoints="891" NumberOfCells="1664">
<Points>
<DataArray  type="Float64"  NumberOfComponents="3"  format="ascii">0 0 0  1.5 1.375 0  3 2.75 0  4.5 4.125 0  6 5.5 0  7.5 6.875 0  9 8.25 0  10.5 9.625 0  12 11 0  13.5 12.375 0  15 13.75 0  16.5 15.125 0  18 16.5 0  19.5 17.875 0  21 19.25 0  22.5 20.625 0  24 22 0  25.5 23.375 0  27 24.75 0  28.5 26.125 0  30 27.5 0  31.5 28.875 0  33 30.25 0  34.5 31.625 0  36 33 0  37.5 34.375 0  39 35.75 0  40.5 37.125 0  42 38.5 0  43.5 39.875 0  45 41.25 0  46.5 42.625 0  48 44 0  0 1.692307692307692 0  1.5 3.033653846153846 0  3 4.375 0  4.5 5.716346153846153 0  6 7.057692307692307 0  7.5 8.399038461538462 0  9 9.740384615384615 0  10.5 11.08173076923077 0  12 12.42307692307692 0  13.5 13.76442307692308 0  15 15.10576923076923 0  16.5 16.44711538461538 0  18 17.78846153846154 0  19.5 19.12980769230769 0  21 20.47115384615385 0  22.5 21.8125 0  24 23.15384615384615 0  25.5 24.49519230769231 0  27 25.83653846153846 0  28.5 27.17788461538462 0  30 28.51923076923077 0  31.5 29.86057692307692 0  33 31.20192307692308 0  34.5 32.54326923076923 0  36 33.88461538461539 0  37.5 35.22596153846154 0  39 36.56730769230769 0  40.5 37.90865384615385 0  42 39.25 0  43.5 40.59134615384615 0  45 41.93269230769231 0  46.5 43.27403846153846 0  48 44.61538461538461 0  0 3.384615384615385 0  1.5 4.692307692307692 0  3 6 0  4.5 7.307692307692307 0  6 8.615384615384615 0  7.5 9.923076923076923 0  9 11.23076923076923 0  10.5 12.53846153846154 0  12 13.84615384615385 0  13.5 15.15384615384615 0  15 16.46153846153846 0  16.5 17.76923076923077 0  18 19.07692307692308 0  19.5 20.38461538461538 0  21 21.69230769230769 0  22.5 23 0  24 24.30769230769231 0  25.5 25.61538461538461 0  27 26.92307692307692 0  28.5 28.23076923076923 0  30 29.53846153846154 0  31.5 30.84615384615385 0  33 32.15384615384615 0  34.5 33.46153846153846 0  36 34.76923076923077 0  37.5 36.07692307692308 0  39 37.38461538461539 0  40.5 38.69230769230769 0  42 40 0  43.5 41.30769230769231 0  45 42.61538461538461 0  46.5 43.92307692307692 0  48 45.23076923076923 0  0 5.076923076923078 0  1.5 6.350961538461538 0  3 7.625 0  4.5 8.899038461538462 0  6 10.17307692307692 0  7.5 11.44711538461539 0  9 12.72115384615385 0  10.5 13.99519230769231 0  12 15.26923076923077 0  13.5 16.54326923076923 0  15 17.81730769230769 0  16.5 19.09134615384615 0  18 20.36538461538462 0  19.5 21.63942307692308 0  21 22.91346153846154 0  22.5 24.1875 0  24 25.46153846153846 0  25.5 26.73557692307692 0  27 28.00961538461539 0  28.5 29.28365384615385 0  30 30.55769230769231 0  31.5 31.83173076923077 0  33 33.10576923076923 0  34.5 34.37980769230769 0  36 35.65384615384615 0  37.5 36.92788461538461 0  39 38.20192307692308 0  40.5 39.47596153846154 0  42 40.75 0  43.5 42.02403846153846 0  45 43.29807692307692 0  46.5 44.57211538461539 0  48 45.84615384615385 0  0 6.769230769230769 0  1.5 8.009615384615383 0  3 9.25 0  4.5 10.49038461538461 0  6 11.73076923076923 0  7.5 12.97115384615384 0  9 14.21153846153846 0  10.5 15.45192307692308 0  12 16.69230769230769 0  13.5 17.93269230769231 0  15 19.17307692307692 0  16.5 20.41346153846154 0  18 21.65384615384615 0  19.5 22.89423076923077 0  21 24.13461538461538 0  22.5 25.375 0  24 26.61538461538461 0  25.5 27.85576923076923 0  27 29.09615384615385 0  28.5 30.33653846153846 0  30 31.57692307692308 0  31.5 32.81730769230769 0  33 34.05769230769231 0  34.5 35.29807692307692 0  36 36.53846153846154 0  37.5 37.77884615384615 0  39 39.01923076923077 0  40.5 40.25961538461539 0  42 41.5 0  43.5 42.74038461538461 0  45 43.98076923076923 0  46.5 45.22115384615385 0  48 46.46153846153846 0  0 8.461538461538462 0  1.5 9.668269230769232 0  3 10.875 0  4.5 12.08173076923077 0  6 13.28846153846154 0  7.5 14.49519230769231 0  9 15.70192307692308 0  10.5 16.90865384615385 0  12 18.11538461538461 0  13.5 19.32211538461539 0  15 20.52884615384615 0  16.5 21.73557692307692 0  18 22.94230769230769 0  19.5 24.14903846153846 0  21 25.35576923076923 0  22.5 26.5625 0  24 27.76923076923077 0  25.5 28.97596153846154 0  27 30.18269230769231 0  28.5 31.38942307692308 0  30 32.59615384615385 0  31.5 33.80288461538461 0  33 35.00961538461539 0  34.5 36.21634615384615 0  36 37.42307692307692 0  37.5 38.62980769230769 0  39 39.83653846153846 0  40.5 41.04326923076923 0  42 42.25 0  43.5 43.45673076923077 0  45 44.66346153846154 0  46.5 45.87019230769231 0  48 47.07692307692308 0  0 10.15384615384616 0  1.5 11.32692307692308 0  3 12.5 0  4.5 13.67307692307692 0  6 14.84615384615385 0  7.5 16.01923076923077 0  9 17.19230769230769 0  10.5 18.36538461538461 0  12 19.53846153846154 0  13.5 20.71153846153846 0  15 21.88461538461539 0  16.5 23.05769230769231 0  18 24.23076923076923 0  19.5 25.40384615384615 0  21 26.57692307692308 0  22.5 27.75 0  24 28.92307692307692 0  25.5 30.09615384615385 0  27 31.26923076923077 0  28.5 32.44230769230769 0  30 33.61538461538461 0  31.5 34.78846153846154 0  33 35.96153846153846 0  34.5 37.13461538461539 0  36 38.30769230769231 0  37.5 39.48076923076923 0  39 40.65384615384615 0  40.5 41.82692307692308 0  42 43 0  43.5 44.17307692307692 0  45 45.34615384615385 0  46.5 46.51923076923077 0  48 47.69230769230769 0  0 11.84615384615384 0  1.5 12.98557692307692 0  3 14.125 0  4.5 15.26442307692308 0  6 16.40384615384615 0  7.5 17.54326923076923 0  9 18.68269230769231 0  10.5 19.82211538461539 0  12 20.96153846153846 0  13.5 22.10096153846154 0  15 23.24038461538461 0  16.5 24.37980769230769 0  18 25.51923076923077 0  19.5 26.65865384615385 0  21 27.79807692307692 0  22.5 28.9375 0  24 30.07692307692308 0  25.5 31.21634615384615 0  27 32.35576923076923 0  28.5 33.49519230769231 0  30 34.63461538461539 0  31.5 35.77403846153846 0  33 36.91346153846154 0  34.5 38.05288461538461 0  36 39.19230769230769 0  37.5 40.33173076923077 0  39 41.47115384615385 0  40.5 42.61057692307692 0  42 43.75 0  43.5 44.88942307692308 0  45 46.02884615384615 0  46.5 47.16826923076923 0  48 48.30769230769231 0  0 13.53846153846154 0  1.5 14.64423076923077 0  3 15.75 0  4.5 16.85576923076923 0  6 17.96153846153846 0  7.5 19.06730769230769 0  9 20.17307692307692 0  10.5 21.27884615384615 0  12 22.38461538461538 0  13.5 23.49038461538461 0  15 24.59615384615385 0  16.5 25.70192307692307 0  18 26.80769230769231 0  19.5 27.91346153846154 0  21 29.01923076923077 0  22.5 30.125 0  24 31.23076923076923 0  25.5 32.33653846153846 0  27 33.44230769230769 0  28.5 34.54807692307692 0  30 35.65384615384615 0  31.5 36.75961538461539 0  33 37.86538461538461 0  34.5 38.97115384615385 0  36 40.07692307692308 0  37.5 41.18269230769231 0  39 42.28846153846154 0  40.5 43.39423076923077 0  42 44.5 0  43.5 45.60576923076923 0  45 46.71153846153846 0  46.5 47.81730769230769 0  48 48.92307692307692 0  0 15.23076923076923 0  1.5 16.30288461538461 0  3 17.375 0  4.5 18.44711538461539 0  6 19.51923076923077 0  7.5 20.59134615384615 0  9 21.66346153846154 0  10.5 22.73557692307693 0  12 23.80769230769231 0  13.5 24.87980769230769 0  15 25.95192307692308 0  16.5 27.02403846153846 0  18 28.09615384615385 0  19.5 29.16826923076923 0  21 30.24038461538461 0  22.5 31.3125 0  24 32.38461538461539 0  25.5 33.45673076923077 0  27 34.52884615384615 0  28.5 35.60096153846154 0  30 36.67307692307692 0  31.5 37.74519230769231 0  33 38.81730769230769 0  34.5 39.88942307692308 0  36 40.96153846153846 0  37.5 42.03365384615385 0  39 43.10576923076923 0  40.5 44.17788461538461 0  42 45.25 0  43.5 46.32211538461539 0  45 47.39423076923077 0  46.5 48.46634615384615 0  48 49.53846153846154 0  0 16.92307692307692 0  1.5 17.96153846153846 0  3 19 0  4.5 20.03846153846154 0  6 21.07692307692308 0  7.5 22.11538461538461 0  9 23.15384615384615 0  10.5 24.19230769230769 0  12 25.23076923076923 0  13.5 26.26923076923077 0  15 27.30769230769231 0  16.5 28.34615384615385 0  18 29.38461538461539 0  19.5 30.42307692307692 0  21 31.46153846153846 0  22.5 32.5 0  24 33.53846153846154 0  25.5 34.57692307692308 0  27 35.61538461538461 0  28.5 36.65384615384615 0  30 37.69230769230769 0  31.5 38.73076923076923 0  33 39.76923076923077 0  34.5 40.80769230769231 0  36 41.84615384615385 0  37.5 42.88461538461539 0  39 43.92307692307692 0  40.5 44.96153846153846 0  42 46 0  43.5 47.03846153846154 0  45 48.07692307692308 0  46.5 49.11538461538461 0  48 50.15384615384615 0  0 18.61538461538462 0  1.5 19.62019230769231 0  3 20.625 0  4.5 21.62980769230769 0  6 22.63461538461538 0  7.5 23.63942307692308 0  9 24.64423076923077 0  10.5 25.64903846153846 0  12 26.65384615384615 0  13.5 27.65865384615385 0  15 28.66346153846154 0  16.5 29.66826923076923 0  18 30.67307692307692 0  19.5 31.67788461538461 0  21 32.68269230769231 0  22.5 33.6875 0  24 34.69230769230769 0  25.5 35.69711538461539 0  27 36.70192307692307 0  28.5 37.70673076923077 0  30 38.71153846153846 0  31.5 39.71634615384615 0  33 40.72115384615385 0  34.5 41.72596153846154 0  36 42.73076923076923 0  37.5 43.73557692307692 0  39 44.74038461538461 0  40.5 45.74519230769231 0  42 46.75 0  43.5 47.75480769230769 0  45 48.75961538461539 0  46.5 49.76442307692308 0  48 50.76923076923077 0  0 20.30769230769231 0  1.5 21.27884615384615 0  3 22.25 0  4.5 23.22115384615385 0  6 24.19230769230769 0  7.5 25.16346153846154 0  9 26.13461538461538 0  10.5 27.10576923076923 0  12 28.07692307692308 0  13.5 29.04807692307692 0  15 30.01923076923077 0  16.5 30.99038461538461 0  18 31.96153846153846 0  19.5 32.93269230769231 0  21 33.90384615384615 0  22.5 34.875 0  24 35.84615384615385 0  25.5 36.81730769230769 0  27 37.78846153846154 0  28.5 38.75961538461539 0  30 39.73076923076923 0  31.5 40.70192307692308 0  33 41.67307692307692 0  34.5 42.64423076923077 0  36 43.61538461538461 0  37.5 44.58653846153846 0  39 45.55769230769231 0  40.5 46.52884615384615 0  42 47.5 0  43.5 48.47115384615385 0  45 49.44230769230769 0  46.5 50.41346153846154 0  48 51.38461538461539 0  0 22 
[...]
<PointData  Vectors="displacement"> 
<DataArray  type="Float64"  Name="displacement"  NumberOfComponents="3" format="ascii">0.0000000000000000e+00 0.0000000000000000e+00 0.0000000000000000e+00  2.1133789260627789e-03 1.0289421244451048e-01 0.0000000000000000e+00  1.2290235229254372e-03 2.0255900323195258e-01 0.0000000000000000e+00  3.9481873680504559e-04 2.9741853179678263e-01 0.0000000000000000e+00  2.0535935522243420e-03 3.8724476401619889e-01 0.0000000000000000e+00  8.1511859018779005e-03 4.7275161046104347e-01 0.0000000000000000e+00  2.0074515953653008e-02 5.5550694530318567e-01 0.0000000000000000e+00  3.8513710271773534e-02 6.3778217121364644e-01 0.0000000000000000e+00  6.3396768496783593e-02 7.2229903604101020e-01 0.0000000000000000e+00  9.3925323952173595e-02 8.1195444705648789e-01 0.0000000000000000e+00  1.2867897716023921e-01 9.0958325106037607e-01 0.0000000000000000e+00  1.6575303796191138e-01 1.0177786638400765e+00 0.0000000000000000e+00  2.0290775618222179e-01 1.1387703390781898e+00 0.0000000000000000e+00  2.3771595803615286e-01 1.2743554249281479e+00 0.0000000000000000e+00  2.6769912840638521e-01 1.4258771512584656e+00 0.0000000000000000e+00  2.9044320465709245e-01 1.5942438772125223e+00 0.0000000000000000e+00  3.0368719080288131e-01 1.7799791597013781e+00 0.0000000000000000e+00  3.0538071389735660e-01 1.9832915354651826e+00 0.0000000000000000e+00  2.9371032629383476e-01 2.2041522159143603e+00 0.0000000000000000e+00  2.6709788463090700e-01 2.4423699867000264e+00 0.0000000000000000e+00  2.2417695759886791e-01 2.6976549599821973e+00 0.0000000000000000e+00  1.6375446625491952e-01 2.9696657704095530e+00 0.0000000000000000e+00  8.4764646294713947e-02 3.2580375215687258e+00 0.0000000000000000e+00  -1.3778376075416363e-02 3.5623898445034325e+00 0.0000000000000000e+00  -1.3282379637309880e-01 3.8823167959167204e+00 0.0000000000000000e+00  -2.7332121986810659e-01 4.2173641086176001e+00 0.0000000000000000e+00  -4.3626771134582359e-01 4.5669930656607782e+00 0.0000000000000000e+00  -6.2280211303451893e-01 4.9304763065417951e+00 0.0000000000000000e+00  -8.3427338154167818e-01 5.3066103918906693e+00 0.0000000000000000e+00  -1.0718615101418636e+00 5.6935037321238502e+00 0.0000000000000000e+00  -1.3359583134717152e+00 6.0897492972793792e+00 0.0000000000000000e+00  -1.6303604790336301e+00 6.4948753339348677e+00 0.0000000000000000e+00  -1.9723454156533651e+00 6.8921742087746640e+00 0.0000000000000000e+00  0.0000000000000000e+00 0.0000000000000000e+00 0.0000000000000000e+00  3.5772890910524500e-04 1.0154351500105950e-01 0.0000000000000000e+00  -1.5642313969595176e-04 1.9994317226529018e-01 0.0000000000000000e+00  1.3269313328453359e-03 2.9378452964885721e-01 0.0000000000000000e+00  6.8218763852096465e-03 3.8278949890899922e-01 0.0000000000000000e+00  1.7718831844317467e-02 4.6767739481509613e-01 0.0000000000000000e+00  3.4758465218611229e-02 5.5006068867667013e-01 0.0000000000000000e+00  5.7974870012675490e-02 6.3224014186621591e-01 0.0000000000000000e+00  8.6716198469774838e-02 7.1693486949061658e-01 0.0000000000000000e+00  1.1973641985336153e-01 8.0701346049931255e-01 0.0000000000000000e+00  1.5532212012703500e-01 9.0526558742696372e-01 0.0000000000000000e+00  1.9142877904141392e-01 1.0142279834458867e+00 0.0000000000000000e+00  2.2581400798245216e-01 1.1360666362575487e+00 0.0000000000000000e+00  2.5616080427245635e-01 1.2725126222703844e+00 0.0000000000000000e+00  2.8018487228146727e-01 1.4248463003094847e+00 0.0000000000000000e+00  2.9572043193735847e-01 1.5939217492231608e+00 0.0000000000000000e+00  3.0078039005890023e-01 1.7802208005637385e+00 0.0000000000000000e+00  2.9358931007506034e-01 1.9839246160921935e+00 0.0000000000000000e+00  2.7259061297786191e-01 2.2049909228342237e+00 0.0000000000000000e+00  2.3643210410520901e-01 2.4432266622708596e+00 0.0000000000000000e+00  1.8393565535235723e-01 2.6983484547367116e+00 0.0000000000000000e+00  1.1405740340209120e-01 2.9700262386722120e+00 0.0000000000000000e+00  2.5844228331728746e-02 3.2579080887616096e+00 0.0000000000000000e+00  -8.1609029829840155e-02 3.5616263836989326e+00 0.0000000000000000e+00  -2.0919874469479691e-01 3.8807875465647323e+00 0.0000000000000000e+00  -3.5784812474222855e-01 4.2149476159584109e+00 0.0000000000000000e+00  -5.2854761516199844e-01 4.5635626063839956e+00 0.0000000000000000e+00  -7.2241711650247875e-01 4.9258670695542035e+00 0.0000000000000000e+00  -9.4076459056335948e-01 5.3006683719078147e+00 0.0000000000000000e+00  -1.1849902338447074e+00 5.6864050349918251e+00 0.0000000000000000e+00  -1.4564333501706610e+00 6.0820015106043455e+00 0.0000000000000000e+00  -1.7583094047468495e+00 6.4853390614774122e+00 0.0000000000000000e+00  -2.0987676379196833e+00 6.8815071265651921e+00 0.0000000000000000e+00  0.0000000000000000e+00 0.0000000000000000e+00 0.0000000000000000e+00  -3.1483487976716916e-04 1.0076777353078598e-01 0.0000000000000000e+00  2.6414376464619185e-04 1.9794633261459649e-01 0.0000000000000000e+00  4.3283690540930619e-03 2.9023574617289155e-01 0.0000000000000000e+00  1.3492358116156131e-02 3.7751836357309598e-01 0.0000000000000000e+00  2.8648861558875787e-02 4.6074789044451719e-01 0.0000000000000000e+00  4.9977201692193392e-02 5.4175569648359989e-01 0.0000000000000000e+00  7.6961979747312143e-02 6.2298796493183894e-01 0.0000000000000000e+00  1.0848131732417116e-01 7.0722668376567477e-01 0.0000000000000000e+00  1.4293723740117356e-01 7.9733474506818858e-01 0.0000000000000000e+00  1.7839552605685677e-01 8.9604569168045989e-01 0.0000000000000000e+00  2.1271854889394540e-01 1.0058062354868944e+00 0.0000000000000000e+00  2.4368498342113756e-01 1.1286733910434754e+00 0.0000000000000000e+00  2.6909318424500833e-01 1.2662640667319831e+00 0.0000000000000000e+00  2.8684472954992857e-01 1.4197513057075721e+00 0.0000000000000000e+00  2.9500492389438920e-01 1.5898980348100906e+00 0.0000000000000000e+00  2.9183852579462022e-01 1.7771168383803169e+00 0.0000000000000000e+00  2.7582131725309772e-01 1.9815434730090615e+00 0.0000000000000000e+00  2.4563057262077001e-01 2.2031126809092609e+00 0.0000000000000000e+00  2.0011934268343856e-01 2.4416270130352702e+00 0.0000000000000000e+00  1.3828034472579143e-01 2.6968122349378589e+00 0.0000000000000000e+00  5.9205050595693122e-02 2.9683557985827052e+00 0.0000000000000000e+00  -3.7957532533814335e-02 3.2559273450241659e+00 0.0000000000000000e+00  -1.5403950464887173e-01 3.5591821260343575e+00 0.0000000000000000e+00  -2.8988890402046080e-01 3.8777492811319907e+00 0.0000000000000000e+00  -4.4640146507980205e-01 4.2112042149026010e+00 0.0000000000000000e+00  -6.2455532168527728e-01 4.5590116936014651e+00 0.0000000000000000e+00  -8.2546485347427956e-01 4.9204160401279431e+00 0.0000000000000000e+00  -1.0504563938781133e+00 5.2943364537347950e+00 0.0000000000000000e+00  -1.3010630831330958e+00 5.6795632275463577e+00 0.0000000000000000e+00  -1.5787222205027380e+00 6.0751782020795986e+00 0.0000000000000000e+00  -1.8849243037082382e+00 6.4780173752858099e+00 0.0000000000000000e+00  -2.2199783313119554e+00 6.8743767031898413e+00 0.0000000000000000e+00  0.0000000000000000e+00 0.0000000000000000e+00 0.0000000000000000e+00  -1.5989288665721826e-04 1.0008073541758514e-01 0.0000000000000000e+00  2.0383457736655661e-03 1.9550570988192117e-01 0.0000000000000000e+00  8.8242635822692872e-03 2.8536094431193643e-01 0.0000000000000000e+00  2.1419361019364813e-02 3.6997533417075290e-01 0.0000000000000000e+00  4.0255400130337918e-02 4.5072192639506309e-01 0.0000000000000000e+00  6.5021643183798744e-02 5.2974134723370270e-01 0.0000000000000000e+00  9.4749457349047689e-02 6.0965441378288954e-01 0.0000000000000000e+00  1.2794811175751977e-01 6.9329786437496388e-01 0.0000000000000000e+00  1.6275717599900563e-01 7.8349737415964782e-01 0.0000000000000000e+00  1.9709101802365772e-01 8.8288536530649531e-01 0.0000000000000000e+00  2.2876631658878113e-01 9.9376849787086585e-01 0.0000000000000000e+00  2.5561009162977061e-01 1.1180466849878190e+00 0.0000000000000000e+00  2.7554649225808803e-01 1.2571814027374957e+00 0.0000000000000000e+00  2.8666025340079943e-01 1.4122067850625026e+00 0.0000000000000000e+00  2.8723546404234740e-01 1.5837735297651192e+00 0.0000000000000000e+00  2.7577013583782034e-01 1.7722137312495629e+00 0.0000000000000000e+00  2.5096930150163699e-01 1.9776146664918381e+00 0.0000000000000000e+00  2.1172125895577976e-01 2.1998910806767085e+00 0.0000000000000000e+00  1.5706261701701604e-01 2.4388480940513735e+00 0.0000000000000000e+00  8.6137823021455395e-02 2.6942298002748188e+00 0.0000000000000000e+00  -1.8420284946528268e-03 2.9657513549974377e+00 0.0000000000000000e+00  -1.0763780212419155e-01 3.2531145081870760e+00 0.0000000000000000e+00  -2.3201673411978171e-01 3.5560079418136570e+00 0.0000000000000000e+00  -3.7578252839800513e-01 3.8740937872714589e+00 0.0000000000000000e+00  -5.3980278247050106e-01 4.2069781828984194e+00 0.0000000000000000e+00  -7.2504068277061595e-01 4.5541566688358390e+00 0.0000000000000000e+00  -9.3260729834396383e-01 4.9149364861118627e+00 0.0000000000000000e+00  -1.1638274230880299e+00 5.2884247670485713e+00 0.0000000000000000e+00  -1.4201548426632498e+00 5.6737520300211033e+00 0.0000000000000000e+00  -1.7024900831261980e+00 6.0700400598933228e+00 0.0000000000000000e+00  -2.0102682989124179e+00 6.4733985637987290e+00 0.0000000000000000e+00  -2.3384610362253682e+00 6.8712125722833273e+00 0.0000000000000000e+00  0.0000000000000000e+00 0.0000000000000000e+00 0.0000000000000000e+00  5.8034454110980735e-04 9.8877245386242513e-02 0.0000000000000000e+00  4.6761143617549353e-03 1.9168206362125531e-01 0.0000000000000000e+00  1.4146498539710940e-02 2.7819718321231107e-01 0.0000000000000000e+00  2.9830069433711796e-02 3.5939902670490154e-01 0.0000000000000000e+00  5.1727455927341473e-02 4.3716030376734605e-01 0.0000000000000000e+00  7.9098530679275691e-02 5.1393821567096820e-01 0.0000000000000000e+00  1.1060145014885325e-01 5.9250155022503415e-01 0.0000000000000000e+00  1.4445848922084645e-01 6.7570051386950292e-01 0.0000000000000000e+00  1.7861845220449368e-01 7.6627611171582422e-01 0.0000000000000000e+00  2.1090072101902133e-01 8.6671108648653317e-01 0.0000000000000000e+00  2.3911672431894421e-01 9.7912674194140581e-01 0.0000000000000000e+00  2.6116743074481830e-01 1.1052275321995511e+00 0.0000000000000000e+00  2.7511533598912569e-01 1.2462905515712932e+00 0.0000000000000000e+00  2.7922978703993784e-01 1.4031923890288538e+00 0.0000000000000000e+00  2.7200611904258348e-01 1.5764626155931187e+00 0.0000000000000000e+00  2.5216135025147896e-01 1.7663520055339765e+00 0.0000000000000000e+00  2.1861122750232126e-01 1.9729043659003573e+00 0.0000000000000000e+00  1.7043463377110465e-01 2.1960230337698388e+00 0.0000000000000000e+00  1.0683153154192575e-01 2.4355259671873610e+00 0.0000000000000000e+00  2.7079817361101082e-02 2.6911862166336924e+00 0.0000000000000000e+00  -6.9504996232925761e-02 2.9627569429436340e+00 0.0000000000000000e+00  -1.8360509459110586e-01 3.2499818183844544e+00 0.0000000000000000e+00  -3.1593013230291533e-01 3.5525924497988228e+00 0.0000000000000000e+00  -4.6724228509606403e-01 3.8702938724647211e+00 0.0000000000000000e+00  -6.3837930567909418e-01 4.2027366385703440e+00 0.0000000000000000e+00  -8.3028283185798246e-01 4.5494740115690959e+00 0.0000000000000000e+00  -1.0440398991801305e+00 4.9099257271046950e+00 0.0000000000000000e+00  -1.2808929347152327e+00 5.2834309977657812e+00 0.0000000000000000e+00  -1.5419783925906931e+00 5.6694086719098529e+00 0.0000000000000000e+00  -1.8273022696469354e+00 6.0669042396548196e+00 0.0000000000000000e+00  -2.1345277871294961e+00 6.4714732660442804e+00 0.0000000000000000e+00  -2.4559472244802447e+00 6.8715877816290734e+00 0.0000000000000000e+00  0.0000000000000000e+00 0.0000000000000000e+00 0.0000000000000000e+00  1.6678513682583567e-03 9.6662548936982284e-02 0.0000000000000000e+00  7.7216790721052241e-03 1.8585031384742109e-01 0.0000000000000000e+00  1.9694997888385284e-02 2.6824309299030180e-01 0.0000000000000000e+00  3.8050419732283139e-02 3.4553824663196675e-01 0.0000000000000000e+00  6.2379697783179540e-02 4.2009675162303306e-01 0.0000000000000000e+00  9.1562377280136498e-02 4.9464664479953369e-01 0.0000000000000000e+00  1.2394641647568259e-01 5.7205105890193497e-01 0.0000000000000000e+00  1.5753015435612477e-01 6.5512094196020665e-01 0.0000000000000000e+00  1.9012722400991511e-01 7.4646316062042339e-01 0.0000000000000000e+00  2.1950762120609121e-01 8.4836627428417744e-01 0.0000000000000000e+00  2.4351272379187688e-01 9.6272890806967104e-01 0.0000000000000000e+00  2.6014232723043434e-01 1.0910319650934883e+00 0.0000000000000000e+00  2.6761198430268512e-01 1.2343503445441246e+00 0.0000000000000000e+00  2.6438061300342564e-01 1.3933952264333205e+00 0.0000000000000000e+00  2.4915096661391187e-01 1.5685755694050114e+00 0.0000000000000000e+00  2.2084808548661397e-01 1.7600673884813651e+00 0.0000000000000000e+00  1.7858246190227842e-01 1.9678811272590293e+00 0.0000000000000000e+00  1.2160502115915135e-01 2.1919201989562445e+00 0.0000000000000000e+00  4.9260254386283377e-02 2.4320267282617931e+00 0.0000000000000000e+00  -3.9057707268516907e-02 2.6880130847651462e+00 0.0000000000000000e+00  -1.4394316700825849e-01 2.9596796603371374e+00 0.0000000000000000e+00  -2.6600998933818043e-01 3.2468204373933065e+00 0.0000000000000000e+00  -4.0591616451992618e-01 3.5492181855962937e+00 0.0000000000000000e+00  -5.6438338920383135e-01 3.8666305279872955e+00 0.0000000000000000e+00  -7.4221475461714626e-01 4.1987676149792552e+00 0.0000000000000000e+00  -9.4031474259594716e-01 4.5452676522477633e+00 0.0000000000000000e+00  -1.1597021312869127e+00 4.9056996165195326e+00 0.0000000000000000e+00  -1.4014270458272191e+00 5.2796413062151215e+00 0.0000000000000000e+00  -1.6661207373892772e+00 5.6667101716971384e+00 0.0000000000000000e+00  -1.9528132294234022e+00 6.0657602018703773e+00 0.0000000000000000e+00  -2.2580350516258085e+00 6.4719120126822949e+00 0.0000000000000000e+00  -2.5735876412020624e+00 6.8747528341395672e+00 0.0000000000000000e+00  0.0000000000000000e+00 0.0000000000000000e+00 0.0000000000000000e+00  2.8973897688860904e-03 9.3131886258362537e-02 0.0000000000000000e+00  1.0810775968943542e-02 1.7771202916884862e-01 0.0000000000000000e+00  2.5007804619989336e-02 2.5536924538506045e-01 0.0000000000000000e+00  4.5573647204263212e-02 3.2848632442058912e-01 0.0000000000000000e+00  7.1706944608528528e-02 3.9984174453395460e-01 0.0000000000000000e+00  1.0194587210081534e-01 4.7236156809365637e-01 0.0000000000000000e+00  1.3437698451920396e-01 5.4893858488355862e-01 0.0000000000000000e+00  1.6682335567514314e-01 6.3228826498158408e-01 0.0000000000000000e+00  1.9700801212824837e-01 7.2483482967809765e-01 0.0000000000000000e+00  2.2269082965242520e-01 8.2863253327887099e-01 0.0000000000000000e+00  2.4177622097229678e-01 9.4532712228356597e-01 0.0000000000000000e+00  2.5238843832823837e-01 1.0761568206357772e+00 0.0000000000000000e+00  2.5291295738911651e-01 1.2219861864883326e+00 0.0000000000000000e+00  2.4200566377180854e-01 1.3833623197696296e+00 0.0000000000000000e+00  2.1857499329353980e-01 1.5605818252351771e+00 0.0000000000000000e+00  1.8174457956231341e-01 1.7537582229958411e+00 0.0000000000000000e+00  1.3080479461665881e-01 1.9628822079752821e+00 0.0000000000000000e+00  6.5160906909125321e-02 2.1878702846673321e+00 0.0000000000000000e+00  -1.5716114128321183e-02 2.4286000775389209e+00 0.0000000000000000e+00  -1.1233226590617500e-01 2.6849326438972509e+00 0.0000000000000000e+00  -2.2520486669471668e-01 2.9567233290862225e+00 0.0000000000000000e+00  -3.5488851599191923e-01 3.2438232213248948e+00 0.0000000000000000e+00  -5.0199377184699290e-01 3.5460732504418342e+00 0.0000000000000000e+00  -6.6720040824178906e-01 3.8632928359507868e+00 0.0000000000000000e+00  -8.5126719317548305e-01 4.1952664936697808e+00 0.0000000000000000e+00  -1.0550355590990614e+00 4.5417394205305062e+00 0.0000000000000000e+00  -1.2793968452851905e+00 4.9024466620039915e+00 0.0000000000000000e+00  -1.5251040761043801e+00 5.2771744124467643e+00 0.0000000000000000e+00  -1.7921893039202839e+00 5.6656265570677169e+00 0.0000000000000000e+00  -2.0788489183330938e+00 6.0663747203592120e+00 0.0000000000000000e+00  -2.3812348529583991e+00 6.4742302805253358e+00 0.0000000000000000e+00  -2.6921238464634540e+00 6.8799421056556680e+00 0.0000000000000000e+00  0.0000000000000000e+00 0.0000000000000000e+00 0.0000000000000000e+00  4.1146341398594711e-03 8.8167366417358131e-02 0.0000000000000000e+00  1.3686675678652593e-02 1.6723663492158666e-01 0.0000000000000000e+00  2.9766000329746144e-02 2.3971373677452601e-01 0.0000000000000000e+00  5.2051888350922351e-02 3.0856071499596283e-01 0.0000000000000000e+00  7.9362285755123427e-02 3.7687209396536442e-01 0.0000000000000000e+00  1.0992540905368858e-01 4.4768741800124867e-01 0.0000000000000000e+00  1.4160473779852834e-01 5.2385958497874130e-01 0.0000000000000000e+00  1.7208738174297741e-01 6.0795042984000514e-01 0.0000000000000000e+00  1.9904446433738596e-01 7.0215369132074579e-01 0.0000000000000000e+00  2.2026286686352600e-01 8.0825281448220587e-01 0.0000000000000000e+00  2.3374359569321215e-01 9.2761685891948253e-01 0.0000000000000000e+00  2.3776261874087815e-01 1.0612305496796148e+00 0.0000000000000000e+00  2.3089381417090479e-01 1.2097489052436656e+00 0.0000000000000000e+00  2.1199841513863776e-01 1.3735645557663978e+00 0.0000000000000000e+00  1.8018907274273074e-01 1.5528766361984767e+00 0.0000000000000000e+00  1.3477839126710761e-01 1.7477529114824437e+00 0.0000000000000000e+00  7.5221461835019071e-02 1.9581802670875101e+00 0.0000000000000000e+00  1.0601012874679678e-03 2.1841018451313823e+00 0.0000000000000000e+00  -8.8126018875229972e-02 2.4254413705426647e+00 0.0000000000000000e+00  -1.9275869211463190e-01 2.6821164965695159e+00 0.0000000000000000e+00  -3.1329034728414668e-01 2.9540435007447612e+00 0.0000000000000000e+00  -4.5022387071838460e-01 3.2411356859865910e+00 0.0000000000000000e+00  -6.0412458741981834e-01 3.5432977426662635e+00 0.0000000000000000e+00  -7.7562579699895728e-01 3.8604187915276476e+00 0.0000000000000000e+00  -9.6542697101502095e-01 4.1923694288017606e+00 0.0000000000000000e+00  -1.1742730623123048e+00 4.5390139633805688e+00 0.0000000000000000e+00  -1.4028672847995209e+00 4.9002476832856035e+00 0.0000000000000000e+00  -1.6515933856060643e+00 5.2760070247301103e+00 0.0000000000000000e+00  -1.9198953196044999e+00 5.6659705931601136e+00 0.0000000000000000e+00  -2.2054208614744906e+00 6.0683854211375543e+00 0.0000000000000000e+00  -2.5046332784318146e+00 6.4779117793391681e+00 0.0000000000000000e+00  -2.8120360022684174e+00 6.8865167631864699e+00 0.0000000000000000e+00  0.0000000000000000e+00 0.0000000000000000e+00 0.0000000000000000e+00  5.2176530594235382e-03 8.1799617688306639e-02 0.0000000000000000e+00  1.6187886609275910e-02 1.5458659388910015e-01 0.0000000000000000e+00  3.3767900427804996e-02 2.2159430011034623e-01 0.0000000000000000e+00  5.7260333589428544e-02 2.8622299417050484e-01 0.0000000000000000e+00  8.5114236112532646e-02 3.5176989706773742e-01 0.0000000000000000e+00  1.1527401818386991e-01 4.2129866938728688e-01 0.0000000000000000e+00  1.4541167950869865e-01 4.9754926045092573e-01 0.0000000000000000e+00  1.7311310342554778e-01 5.8286941048082841e-01 0.0000000000000000e+00  1.9603499775769490e-01 6.7917478245415785e-01 0.0000000000000000e+00  2.1202968999996250e-01 7.8794509225689358e-01 0.0000000000000000e+00  2.1923058852116778e-01 9.1025554209206017e-01 0.0000000000000000e+00  2.1609439683717624e-01 1.0468350526506234e+00 0.0000000000000000e+00  2.0140238660032017e-01 1.1981387257026641e+00 0.0000000000000000e+00  1.7422874325984009e-01 1.3644220318445237e+00 0.0000000000000000e+00  1.3388726841606893e-01 1.5458071770241006e+00 0.0000000000000000e+00  7.9868134662331974e-02 1.7423362261520940e+00 0.0000000000000000e+00  1.1774575350259595e-02 1.9540093907992031e+00 0.0000000000000000e+00  -7.0733575957473288e-02 2.18080959917