<?xml version="1.0"?>
<VTKFile type="UnstructuredGrid"  version="0.1"  >
<UnstructuredGrid>
<Piece  NumberOfPoints="891" NumberOfCells="1664">
<Points>
<DataArray  type="Float64"  NumberOfComponents="3"  format="ascii">0 0 0  1.5 1.375 0  3 2.75 0  4.5 4.125 0  6 5.5 0  7.5 6.875 0  9 8.25 0  10.5 9.625 0  12 11 0  13.5 12.375 0  15 13.75 0  16.5 15.125 0  18 16.5 0  19.5 17.875 0  21 19.25 0  22.5 20.625 0  24 22 0  25.5 23.375 0  27 24.75 0  28.5 26.125 0  30 27.5 0  31.5 28.875 0  33 30.25 0  34.5 31.625 0  36 33 0  37.5 34.375 0  39 35.75 0  40.5 37.125 0  42 38.5 0  43.5 39.875 0  45 41.25 0  46.5 42.625 0  48 44 0  0 1.692307692307692 0  1.5 3.033653846153846 0  3 4.375 0  4.5 5.716346153846153 0  6 7.057692307692307 0  7.5 8.399038461538462 0  9 9.740384615384615 0  10.5 11.08173076923077 0  12 12.42307692307692 0  13.5 13.76442307692308 0  15 15.10576923076923 0  16.5 16.44711538461538 0  18 17.78846153846154 0  19.5 19.12980769230769 0  21 20.47115384615385 0  22.5 21.8125 0  24 23.15384615384615 0  25.5 24.49519230769231 0  27 25.83653846153846 0  28.5 27.17788461538462 0  30 28.51923076923077 0  31.5 29.86057692307692 0  33 31.20192307692308 0  34.5 32.54326923076923 0  36 33.88461538461539 0  37.5 35.22596153846154 0  39 36.56730769230769 0  40.5 37.90865384615385 0  42 39.25 0  43.5 40.59134615384615 0  45 41.93269230769231 0  46.5 43.27403846153846 0  48 44.61538461538461 0  0 3.384615384615385 0  1.5 4.692307692307692 0  3 6 0  4.5 7.307692307692307 0  6 8.615384615384615 0  7.5 9.923076923076923 0  9 11.23076923076923 0  10.5 12.53846153846154 0  12 13.84615384615385 0  13.5 15.15384615384615 0  15 16.46153846153846 0  16.5 17.76923076923077 0  18 19.07692307692308 0  19.5 20.38461538461538 0  21 21.69230769230769 0  22.5 23 0  24 24.30769230769231 0  25.5 25.61538461538461 0  27 26.92307692307692 0  28.5 28.23076923076923 0  30 29.53846153846154 0  31.5 30.84615384615385 0  33 32.15384615384615 0  34.5 33.46153846153846 0  36 34.76923076923077 0  37.5 36.07692307692308 0  39 37.38461538461539 0  40.5 38.69230769230769 0  42 40 0  43.5 41.30769230769231 0  45 42.61538461538461 0  46.5 43.92307692307692 0  48 45.23076923076923 0  0 5.076923076923078 0  1.5 6.350961538461538 0  3 7.625 0  4.5 8.899038461538462 0  6 10.17307692307692 0  7.5 11.44711538461539 0  9 12.72115384615385 0  10.5 13.99519230769231 0  12 15.26923076923077 0  13.5 16.54326923076923 0  15 17.81730769230769 0  16.5 19.09134615384615 0  18 20.36538461538462 0  19.5 21.63942307692308 0  21 22.91346153846154 0  22.5 24.1875 0  24 25.46153846153846 0  25.5 26.73557692307692 0  27 28.00961538461539 0  28.5 29.28365384615385 0  30 30.55769230769231 0  31.5 31.83173076923077 0  33 33.10576923076923 0  34.5 34.37980769230769 0  36 35.65384615384615 0  37.5 36.92788461538461 0  39 38.20192307692308 0  40.5 39.47596153846154 0  42 40.75 0  43.5 42.02403846153846 0  45 43.29807692307692 0  46.5 44.57211538461539 0  48 45.84615384615385 0  0 6.769230769230769 0  1.5 8.009615384615383 0  3 9.25 0  4.5 10.49038461538461 0  6 11.73076923076923 0  7.5 12.97115384615384 0  9 14.21153846153846 0  10.5 15.45192307692308 0  12 16.69230769230769 0  13.5 17.93269230769231 0  15 19.17307692307692 0  16.5 20.41346153846154 0  18 21.65384615384615 0  19.5 22.89423076923077 0  21 24.13461538461538 0  22.5 25.375 0  24 26.61538461538461 0  25.5 27.85576923076923 0  27 29.09615384615385 0  28.5 30.33653846153846 0  30 31.57692307692308 0  31.5 32.81730769230769 0  33 34.05769230769231 0  34.5 35.29807692307692 0  36 36.53846153846154 0  37.5 37.77884615384615 0  39 39.01923076923077 0  40.5 40.25961538461539 0  42 41.5 0  43.5 42.74038461538461 0  45 43.98076923076923 0  46.5 45.22115384615385 0  48 46.46153846153846 0  0 8.461538461538462 0  1.5 9.668269230769232 0  3 10.875 0  4.5 12.08173076923077 0  6 13.28846153846154 0  7.5 14.49519230769231 0  9 15.70192307692308 0  10.5 16.90865384615385 0  12 18.11538461538461 0  13.5 19.32211538461539 0  15 20.52884615384615 0  16.5 21.73557692307692 0  18 22.94230769230769 0  19.5 24.14903846153846 0  21 25.35576923076923 0  22.5 26.5625 0  24 27.76923076923077 0  25.5 28.97596153846154 0  27 30.18269230769231 0  28.5 31.38942307692308 0  30 32.59615384615385 0  31.5 33.80288461538461 0  33 35.00961538461539 0  34.5 36.21634615384615 0  36 37.42307692307692 0  37.5 38.62980769230769 0  39 39.83653846153846 0  40.5 41.04326923076923 0  42 42.25 0  43.5 43.45673076923077 0  45 44.66346153846154 0  46.5 45.87019230769231 0  48 47.07692307692308 0  0 10.15384615384616 0  1.5 11.32692307692308 0  3 12.5 0  4.5 13.67307692307692 0  6 14.84615384615385 0  7.5 16.01923076923077 0  9 17.19230769230769 0  10.5 18.36538461538461 0  12 19.53846153846154 0  13.5 20.71153846153846 0  15 21.88461538461539 0  16.5 23.05769230769231 0  18 24.23076923076923 0  19.5 25.40384615384615 0  21 26.57692307692308 0  22.5 27.75 0  24 28.92307692307692 0  25.5 30.09615384615385 0  27 31.26923076923077 0  28.5 32.44230769230769 0  30 33.61538461538461 0  31.5 34.78846153846154 0  33 35.96153846153846 0  34.5 37.13461538461539 0  36 38.30769230769231 0  37.5 39.48076923076923 0  39 40.65384615384615 0  40.5 41.82692307692308 0  42 43 0  43.5 44.17307692307692 0  45 45.34615384615385 0  46.5 46.51923076923077 0  48 47.69230769230769 0  0 11.84615384615384 0  1.5 12.98557692307692 0  3 14.125 0  4.5 15.26442307692308 0  6 16.40384615384615 0  7.5 17.54326923076923 0  9 18.68269230769231 0  10.5 19.82211538461539 0  12 20.96153846153846 0  13.5 22.10096153846154 0  15 23.24038461538461 0  16.5 24.37980769230769 0  18 25.51923076923077 0  19.5 26.65865384615385 0  21 27.79807692307692 0  22.5 28.9375 0  24 30.07692307692308 0  25.5 31.21634615384615 0  27 32.35576923076923 0  28.5 33.49519230769231 0  30 34.63461538461539 0  31.5 35.77403846153846 0  33 36.91346153846154 0  34.5 38.05288461538461 0  36 39.19230769230769 0  37.5 40.33173076923077 0  39 41.47115384615385 0  40.5 42.61057692307692 0  42 43.75 0  43.5 44.88942307692308 0  45 46.02884615384615 0  46.5 47.16826923076923 0  48 48.30769230769231 0  0 13.53846153846154 0  1.5 14.64423076923077 0  3 15.75 0  4.5 16.85576923076923 0  6 17.96153846153846 0  7.5 19.06730769230769 0  9 20.17307692307692 0  10.5 21.27884615384615 0  12 22.38461538461538 0  13.5 23.49038461538461 0  15 24.59615384615385 0  16.5 25.70192307692307 0  18 26.80769230769231 0  19.5 27.91346153846154 0  21 29.01923076923077 0  22.5 30.125 0  24 31.23076923076923 0  25.5 32.33653846153846 0  27 33.44230769230769 0  28.5 34.54807692307692 0  30 35.65384615384615 0  31.5 36.75961538461539 0  33 37.86538461538461 0  34.5 38.97115384615385 0  36 40.07692307692308 0  37.5 41.18269230769231 0  39 42.28846153846154 0  40.5 43.39423076923077 0  42 44.5 0  43.5 45.60576923076923 0  45 46.71153846153846 0  46.5 47.81730769230769 0  48 48.92307692307692 0  0 15.23076923076923 0  1.5 16.30288461538461 0  3 17.375 0  4.5 18.44711538461539 0  6 19.51923076923077 0  7.5 20.59134615384615 0  9 21.66346153846154 0  10.5 22.73557692307693 0  12 23.80769230769231 0  13.5 24.87980769230769 0  15 25.95192307692308 0  16.5 27.02403846153846 0  18 28.09615384615385 0  19.5 29.16826923076923 0  21 30.24038461538461 0  22.5 31.3125 0  24 32.38461538461539 0  25.5 33.45673076923077 0  27 34.52884615384615 0  28.5 35.60096153846154 0  30 36.67307692307692 0  31.5 37.74519230769231 0  33 38.81730769230769 0  34.5 39.88942307692308 0  36 40.96153846153846 0  37.5 42.03365384615385 0  39 43.10576923076923 0  40.5 44.17788461538461 0  42 45.25 0  43.5 46.32211538461539 0  45 47.39423076923077 0  46.5 48.46634615384615 0  48 49.53846153846154 0  0 16.92307692307692 0  1.5 17.96153846153846 0  3 19 0  4.5 20.03846153846154 0  6 21.07692307692308 0  7.5 22.11538461538461 0  9 23.15384615384615 0  10.5 24.19230769230769 0  12 25.23076923076923 0  13.5 26.26923076923077 0  15 27.30769230769231 0  16.5 28.34615384615385 0  18 29.38461538461539 0  19.5 30.42307692307692 0  21 31.46153846153846 0  22.5 32.5 0  24 33.53846153846154 0  25.5 34.57692307692308 0  27 35.61538461538461 0  28.5 36.65384615384615 0  30 37.69230769230769 0  31.5 38.73076923076923 0  33 39.76923076923077 0  34.5 40.80769230769231 0  36 41.84615384615385 0  37.5 42.88461538461539 0  39 43.92307692307692 0  40.5 44.96153846153846 0  42 46 0  43.5 47.03846153846154 0  45 48.07692307692308 0  46.5 49.11538461538461 0  48 50.15384615384615 0  0 18.61538461538462 0  1.5 19.62019230769231 0  3 20.625 0  4.5 21.62980769230769 0  6 22.63461538461538 0  7.5 23.63942307692308 0  9 24.64423076923077 0  10.5 25.64903846153846 0  12 26.65384615384615 0  13.5 27.65865384615385 0  15 28.66346153846154 0  16.5 29.66826923076923 0  18 30.67307692307692 0  19.5 31.67788461538461 0  21 32.68269230769231 0  22.5 33.6875 0  24 34.69230769230769 0  25.5 35.69711538461539 0  27 36.70192307692307 0  28.5 37.70673076923077 0  30 38.71153846153846 0  31.5 39.71634615384615 0  33 40.72115384615385 0  34.5 41.72596153846154 0  36 42.73076923076923 0  37.5 43.73557692307692 0  39 44.74038461538461 0  40.5 45.74519230769231 0  42 46.75 0  43.5 47.75480769230769 0  45 48.75961538461539 0  46.5 49.76442307692308 0  48 50.76923076923077 0  0 20.30769230769231 0  1.5 21.27884615384615 0  3 22.25 0  4.5 23.22115384615385 0  6 24.19230769230769 0  7.5 25.16346153846154 0  9 26.13461538461538 0  10.5 27.10576923076923 0  12 28.07692307692308 0  13.5 29.04807692307692 0  15 30.01923076923077 0  16.5 30.99038461538461 0  18 31.96153846153846 0  19.5 32.93269230769231 0  21 33.90384615384615 0  22.5 34.875 0  24 35.84615384615385 0  25.5 36.81730769230769 0  27 37.78846153846154 0  28.5 38.75961538461539 0  30 39.73076923076923 0  31.5 40.70192307692308 0  33 41.67307692307692 0  34.5 42.64423076923077 0  36 43.61538461538461 0  37.5 44.58653846153846 0  39 45.55769230769231 0  40.5 46.52884615384615 0  42 47.5 0  43.5 48.47115384615385 0  45 49.44230769230769 0  46.5 50.41346153846154 0  48 51.38461538461539 0  0 22 
[...]
<PointData  Vectors="displacement"> 
<DataArray  type="Float64"  Name="displacement"  NumberOfComponents="3" format="ascii">0.0000000000000000e+00 0.0000000000000000e+00 0.0000000000000000e+00  1.4055049787015555e-03 9.6442212576780414e-02 0.0000000000000000e+00  1.9224815661415292e-03 1.8986701300295500e-01 0.0000000000000000e+00  2.5444003840423991e-03 2.7830502575409682e-01 0.0000000000000000e+00  4.6487533770938616e-03 3.6359374453425458e-01 0.0000000000000000e+00  1.0877398056791733e-02 4.4387372596036390e-01 0.0000000000000000e+00  2.1713477471957610e-02 5.2188940758281843e-01 0.0000000000000000e+00  3.8965621715772267e-02 5.9827657018267610e-01 0.0000000000000000e+00  6.1627665129287690e-02 6.7666986089526004e-01 0.0000000000000000e+00  9.0470703670233105e-02 7.5869447805405077e-01 0.0000000000000000e+00  1.2280462905950652e-01 8.4815217086989869e-01 0.0000000000000000e+00  1.5892542873512333e-01 9.4648392918066948e-01 0.0000000000000000e+00  1.9464327451709937e-01 1.0572194355944124e+00 0.0000000000000000e+00  2.3059868161191527e-01 1.1808641317139696e+00 0.0000000000000000e+00  2.6117983512069176e-01 1.3206181612259831e+00 0.0000000000000000e+00  2.8819420001811230e-01 1.4756302541352544e+00 0.0000000000000000e+00  3.0465946602287858e-01 1.6490384728245839e+00 0.0000000000000000e+00  3.1395075012149665e-01 1.8384023349081886e+00 0.0000000000000000e+00  3.0759450444031650e-01 2.0472144714047893e+00 0.0000000000000000e+00  2.9131846521141558e-01 2.2714913576632143e+00 0.0000000000000000e+00  2.5477877394019965e-01 2.5154083486208116e+00 0.0000000000000000e+00  2.0674329051514642e-01 2.7737141702729065e+00 0.0000000000000000e+00  1.3481565142828777e-01 3.0515061170520652e+00 0.0000000000000000e+00  5.0136141869253817e-02 3.3422801846960946e+00 0.0000000000000000e+00  -6.1627447618191535e-02 3.6522117750985994e+00 0.0000000000000000e+00  -1.8703230989707809e-01 3.9736633768579259e+00 0.0000000000000000e+00  -3.4257143194524825e-01 4.3134701324988116e+00 0.0000000000000000e+00  -5.1297626596210022e-01 4.6631995949298837e+00 0.0000000000000000e+00  -7.1610406999375797e-01 5.0294937367474120e+00 0.0000000000000000e+00  -9.3764002987836481e-01 5.4027256281397165e+00 0.0000000000000000e+00  -1.1930903313295533e+00 5.7887836075600898e+00 0.0000000000000000e+00  -1.4735019995409675e+00 6.1734521883008631e+00 0.0000000000000000e+00  -1.7893682479884208e+00 6.5605766848758780e+00 0.0000000000000000e+00  0.0000000000000000e+00 0.0000000000000000e+00 0.0000000000000000e+00  -1.0922238733101519e-03 9.2976853854299907e-02 0.0000000000000000e+00  -1.2420363316887244e-03 1.8584164092802291e-01 0.0000000000000000e+00  1.4135528360395666e-04 2.7413575237660581e-01 0.0000000000000000e+00  4.8612186170891285e-03 3.5865042883272730e-01 0.0000000000000000e+00  1.4725265554004786e-02 4.3820512307906956e-01 0.0000000000000000e+00  3.0245273882268171e-02 5.1515205008617371e-01 0.0000000000000000e+00  5.2037325468472839e-02 5.9083759481199405e-01 0.0000000000000000e+00  7.9215269050260231e-02 6.6838663560683753e-01 0.0000000000000000e+00  1.1116838829950305e-01 7.5015170395142916e-01 0.0000000000000000e+00  1.4593125159659842e-01 8.3923340171481220e-01 0.0000000000000000e+00  1.8228364797606658e-01 9.3794328145346573e-01 0.0000000000000000e+00  2.1753395231989731e-01 1.0487905193660148e+00 0.0000000000000000e+00  2.5041205423553942e-01 1.1734077399130551e+00 0.0000000000000000e+00  2.7766048055900899e-01 1.3135461703511722e+00 0.0000000000000000e+00  2.9858048410955640e-01 1.4698537463949257e+00 0.0000000000000000e+00  3.0925922015473406e-01 1.6435093642050922e+00 0.0000000000000000e+00  3.0992346361330753e-01 1.8340972505420938e+00 0.0000000000000000e+00  2.9620791255170559e-01 2.0427561511210817e+00 0.0000000000000000e+00  2.6970290649739892e-01 2.2680054308484769e+00 0.0000000000000000e+00  2.2535081399282297e-01 2.5113668912234939e+00 0.0000000000000000e+00  1.6667473598362928e-01 2.7704138096656847e+00 0.0000000000000000e+00  8.7087289316137656e-02 3.0472009735326395e+00 0.0000000000000000e+00  -8.0961154649443149e-03 3.3384222590190640e+00 0.0000000000000000e+00  -1.2684815743139474e-01 3.6470405059698567e+00 0.0000000000000000e+00  -2.6221298988348563e-01 3.9685999866731478e+00 0.0000000000000000e+00  -4.2398592394707568e-01 4.3069166254117421e+00 0.0000000000000000e+00  -6.0338600157395439e-01 4.6563994311671308e+00 0.0000000000000000e+00  -8.1260623241796581e-01 5.0209244087818643e+00 0.0000000000000000e+00  -1.0417317074787014e+00 5.3940229797164196e+00 0.0000000000000000e+00  -1.3031593091175409e+00 5.7778110925706621e+00 0.0000000000000000e+00  -1.5901136973165610e+00 6.1648191812238045e+00 0.0000000000000000e+00  -1.9050581422308632e+00 6.5524298998882227e+00 0.0000000000000000e+00  0.0000000000000000e+00 0.0000000000000000e+00 0.0000000000000000e+00  7.3334004284752758e-04 9.5546068590382921e-02 0.0000000000000000e+00  1.3644267149842762e-03 1.8768974013175485e-01 0.0000000000000000e+00  5.0388624681442550e-03 2.7431584517881485e-01 0.0000000000000000e+00  1.3130237225728291e-02 3.5646365142090436e-01 0.0000000000000000e+00  2.7461163044454683e-02 4.3369556276735560e-01 0.0000000000000000e+00  4.7370612845140055e-02 5.0881925376455028e-01 0.0000000000000000e+00  7.3593323817656528e-02 5.8317868389428862e-01 0.0000000000000000e+00  1.0383363818973280e-01 6.6015170527848654e-01 0.0000000000000000e+00  1.3814477299465291e-01 7.4183177715524418e-01 0.0000000000000000e+00  1.7311794652715715e-01 8.3150637190675314e-01 0.0000000000000000e+00  2.0882076921123016e-01 9.3098739550251797e-01 0.0000000000000000e+00  2.4083676219490324e-01 1.0430632356877891e+00 0.0000000000000000e+00  2.6991148668213943e-01 1.1686819129829182e+00 0.0000000000000000e+00  2.9066673371398632e-01 1.3100879103897816e+00 0.0000000000000000e+00  3.0512770433855024e-01 1.4671166015333750e+00 0.0000000000000000e+00  3.0668468637121077e-01 1.6417104369060393e+00 0.0000000000000000e+00  2.9938047156446551e-01 1.8326723661528488e+00 0.0000000000000000e+00  2.7514329303263013e-01 2.0419604999539418e+00 0.0000000000000000e+00  2.4033956576112542e-01 2.2672130737053795e+00 0.0000000000000000e+00  1.8520806460028710e-01 2.5109182794460345e+00 0.0000000000000000e+00  1.1852168113721137e-01 2.7694611823486706e+00 0.0000000000000000e+00  2.8244003887860743e-02 3.0461983987880372e+00 0.0000000000000000e+00  -7.4152356178992795e-02 3.3366675465878930e+00 0.0000000000000000e+00  -2.0300493486320925e-01 3.6449487101332623e+00 0.0000000000000000e+00  -3.4475997371124478e-01 3.9654910956243410e+00 0.0000000000000000e+00  -5.1567054712161409e-01 4.3034195001287587e+00 0.0000000000000000e+00  -7.0093062941751960e-01 4.6514756567530249e+00 0.0000000000000000e+00  -9.1829000560658125e-01 5.0160950863167635e+00 0.0000000000000000e+00  -1.1522848361001590e+00 5.3873962503918627e+00 0.0000000000000000e+00  -1.4214463982753089e+00 5.7726768201864127e+00 0.0000000000000000e+00  -1.7100764187867978e+00 6.1590827919468056e+00 0.0000000000000000e+00  -2.0266026761954783e+00 6.5493071904847930e+00 0.0000000000000000e+00  0.0000000000000000e+00 0.0000000000000000e+00 0.0000000000000000e+00  -1.1492770736477014e-03 9.2337193487623315e-02 0.0000000000000000e+00  2.2120640258126259e-04 1.8236730206677959e-01 0.0000000000000000e+00  5.9209609649106855e-03 2.6666634064503825e-01 0.0000000000000000e+00  1.7275123805767057e-02 3.4630111439804173e-01 0.0000000000000000e+00  3.4722539488734848e-02 4.2136144964969874e-01 0.0000000000000000e+00  5.8131434017713764e-02 4.9465271850186171e-01 0.0000000000000000e+00  8.6722056869419500e-02 5.6776361381363627e-01 0.0000000000000000e+00  1.1914294721143308e-01 6.4393608886421694e-01 0.0000000000000000e+00  1.5380310741724590e-01 7.2556216007451246e-01 0.0000000000000000e+00  1.8884356296883323e-01 8.1539805664657394e-01 0.0000000000000000e+00  2.2219814008965555e-01 9.1582531426608860e-01 0.0000000000000000e+00  2.5187576977554221e-01 1.0287127355837753e+00 0.0000000000000000e+00  2.7590055803779429e-01 1.1559500194168313e+00 0.0000000000000000e+00  2.9221282468860243e-01 1.2984448384806646e+00 0.0000000000000000e+00  2.9930332757839312e-01 1.4573801724025817e+00 0.0000000000000000e+00  2.9503132880621336e-01 1.6330107847673174e+00 0.0000000000000000e+00  2.7874296962799400e-01 1.8257870030143881e+00 0.0000000000000000e+00  2.4787420435171031e-01 2.0355693755933872e+00 0.0000000000000000e+00  2.0314222778590907e-01 2.2622339728921448e+00 0.0000000000000000e+00  1.4106338245882111e-01 2.5057219526859180e+00 0.0000000000000000e+00  6.4055605829417606e-02 2.7652012094809120e+00 0.0000000000000000e+00  -3.2836263050921202e-02 3.0413348580234030e+00 0.0000000000000000e+00  -1.4519573706959002e-01 3.3323881266450046e+00 0.0000000000000000e+00  -2.8020076051154125e-01 3.6395935242398072e+00 0.0000000000000000e+00  -4.3105900639885947e-01 3.9606462240102625e+00 0.0000000000000000e+00  -6.0771474250151636e-01 4.2970497313083147e+00 0.0000000000000000e+00  -8.0093289294502412e-01 4.6459621146527628e+00 0.0000000000000000e+00  -1.0232866953861919e+00 5.0087604266392196e+00 0.0000000000000000e+00  -1.2641662355382821e+00 5.3818607194247132e+00 0.0000000000000000e+00  -1.5362433211218902e+00 5.7663402304869917e+00 0.0000000000000000e+00  -1.8273820688519555e+00 6.1570471764744008e+00 0.0000000000000000e+00  -2.1376148798525785e+00 6.5507526905957523e+00 0.0000000000000000e+00  0.0000000000000000e+00 0.0000000000000000e+00 0.0000000000000000e+00  1.5953031953138354e-03 9.4829735115102981e-02 0.0000000000000000e+00  4.8647833439134673e-03 1.8307925963701799e-01 0.0000000000000000e+00  1.3329140576819797e-02 2.6374621501393536e-01 0.0000000000000000e+00  2.7441937694913172e-02 3.3949225585192272e-01 0.0000000000000000e+00  4.8209126638356754e-02 4.1090139107659540e-01 0.0000000000000000e+00  7.4214540182403838e-02 4.8134782092863349e-01 0.0000000000000000e+00  1.0532943165242684e-01 5.5247383410686768e-01 0.0000000000000000e+00  1.3864347048642356e-01 6.2791019401199311e-01 0.0000000000000000e+00  1.7388108590656159e-01 7.0955672764490640e-01 0.0000000000000000e+00  2.0710381355404248e-01 8.0050713938872775e-01 0.0000000000000000e+00  2.3845030070885784e-01 9.0237621939917045e-01 0.0000000000000000e+00  2.6335848884534718e-01 1.0174190348842305e+00 0.0000000000000000e+00  2.8284375641461817e-01 1.1465831623924536e+00 0.0000000000000000e+00  2.9162000136101007e-01 1.2913328553654966e+00 0.0000000000000000e+00  2.9219171651015408e-01 1.4518855676125331e+00 0.0000000000000000e+00  2.7825884649033794e-01 1.6292620344012432e+00 0.0000000000000000e+00  2.5421268833162719e-01 1.8228799382844716e+00 0.0000000000000000e+00  2.1260388290683158e-01 2.0338177150935515e+00 0.0000000000000000e+00  1.5988443707689245e-01 2.2606663098043245e+00 0.0000000000000000e+00  8.7017493894701189e-02 2.5048056077340988e+00 0.0000000000000000e+00  2.6337128906023335e-03 2.7640256487231949e+00 0.0000000000000000e+00  -1.0449204163205278e-01 3.0403918103656147e+00 0.0000000000000000e+00  -2.2355591113743650e-01 3.3306258676819249e+00 0.0000000000000000e+00  -3.6782469911048488e-01 3.6380682575207359e+00 0.0000000000000000e+00  -5.2469270959856451e-01 3.9578294513885139e+00 0.0000000000000000e+00  -7.0941313843764386e-01 4.2948945821522928e+00 0.0000000000000000e+00  -9.0762751488258220e-01 4.6421179029557882e+00 0.0000000000000000e+00  -1.1371726020137349e+00 5.0065303103513283e+00 0.0000000000000000e+00  -1.3808343004347103e+00 5.3783851497037389e+00 0.0000000000000000e+00  -1.6581563544860056e+00 5.7662666531220115e+00 0.0000000000000000e+00  -1.9462089822985420e+00 6.1571280809718552e+00 0.0000000000000000e+00  -2.2577632587808441e+00 6.5530075943761483e+00 0.0000000000000000e+00  0.0000000000000000e+00 0.0000000000000000e+00 0.0000000000000000e+00  -7.6476191859916015e-04 8.8920288663629291e-02 0.0000000000000000e+00  3.9313867368344722e-03 1.7307654961209396e-01 0.0000000000000000e+00  1.4572324245982898e-02 2.4975042264435762e-01 0.0000000000000000e+00  3.1795232786114160e-02 3.2213488615727531e-01 0.0000000000000000e+00  5.4956430675167520e-02 3.9085300112229748e-01 0.0000000000000000e+00  8.3454985212537816e-02 4.5953437469863867e-01 0.0000000000000000e+00  1.1528370954706384e-01 5.2987900781402908e-01 0.0000000000000000e+00  1.4925619921711042e-01 6.0526603235903309e-01 0.0000000000000000e+00  1.8270958957072925e-01 6.8769880759065338e-01 0.0000000000000000e+00  2.1432030504079924e-01 7.7976133856891405e-01 0.0000000000000000e+00  2.4126988160194407e-01 8.8339738873128115e-01 0.0000000000000000e+00  2.6246001628266913e-01 1.0000499594761063e+00 0.0000000000000000e+00  2.7512492871108651e-01 1.1313807676483321e+00 0.0000000000000000e+00  2.7865967436005395e-01 1.2777590244950334e+00 0.0000000000000000e+00  2.7062728335050057e-01 1.4405495989198605e+00 0.0000000000000000e+00  2.5062836330318861e-01 1.6192268605502576e+00 0.0000000000000000e+00  2.1714594326917724e-01 1.8149727069745114e+00 0.0000000000000000e+00  1.6934409808453138e-01 2.0266573526682796e+00 0.0000000000000000e+00  1.0692661671930531e-01 2.2551623520026434e+00 0.0000000000000000e+00  2.8049857044565828e-02 2.4993012172082980e+00 0.0000000000000000e+00  -6.6066490127901195e-02 2.7596810483178085e+00 0.0000000000000000e+00  -1.7904649055198457e-01 3.0352935403159798e+00 0.0000000000000000e+00  -3.0718119380272058e-01 3.3267364075652495e+00 0.0000000000000000e+00  -4.5693774229814371e-01 3.6327481649303772e+00 0.0000000000000000e+00  -6.2184529800392574e-01 3.9540500914307088e+00 0.0000000000000000e+00  -8.1131209254763392e-01 4.2891435017808570e+00 0.0000000000000000e+00  -1.0167173481218921e+00 4.6386189274668022e+00 0.0000000000000000e+00  -1.2491871966422443e+00 5.0013655410314444e+00 0.0000000000000000e+00  -1.4984429400310431e+00 5.3765180322831414e+00 0.0000000000000000e+00  -1.7748322303508923e+00 5.7644901397440078e+00 0.0000000000000000e+00  -2.0632005242734581e+00 6.1597338442908756e+00 0.0000000000000000e+00  -2.3676338840897100e+00 6.5588984988851964e+00 0.0000000000000000e+00  0.0000000000000000e+00 0.0000000000000000e+00 0.0000000000000000e+00  2.7529856892204436e-03 8.9808319266847556e-02 0.0000000000000000e+00  9.7480130603701046e-03 1.7042235758514684e-01 0.0000000000000000e+00  2.2751404741438028e-02 2.4214683349384222e-01 0.0000000000000000e+00  4.1801349491441611e-02 3.0996031763684395e-01 0.0000000000000000e+00  6.7047085009146384e-02 3.7470504898841961e-01 0.0000000000000000e+00  9.6246752303798616e-02 4.4057466424510372e-01 0.0000000000000000e+00  1.2896217231932033e-01 5.0916249487867660e-01 0.0000000000000000e+00  1.6173173921759473e-01 5.8411537859183904e-01 0.0000000000000000e+00  1.9422382359891271e-01 6.6703423334274037e-01 0.0000000000000000e+00  2.2220235669102720e-01 7.6071470328411050e-01 0.0000000000000000e+00  2.4607020274520738e-01 8.6638770283386224e-01 0.0000000000000000e+00  2.6101168319037393e-01 9.8578868766404770e-01 0.0000000000000000e+00  2.6870700798986658e-01 1.1197067253712054e+00 0.0000000000000000e+00  2.6377677806951899e-01 1.2689949076535263e+00 0.0000000000000000e+00  2.4931711188744671e-01 1.4339319640062684e+00 0.0000000000000000e+00  2.1941215958491606e-01 1.6149637100118983e+00 0.0000000000000000e+00  1.7863927946558347e-01 1.8118583774745347e+00 0.0000000000000000e+00  1.2012673647563650e-01 2.0249782648233627e+00 0.0000000000000000e+00  5.0239957964384054e-02 2.2536897743309496e+00 0.0000000000000000e+00  -3.9330897957510297e-02 2.4987298508476297e+00 0.0000000000000000e+00  -1.4049161505110980e-01 2.7585935852731778e+00 0.0000000000000000e+00  -2.6305084821209301e-01 3.0351700763541194e+00 0.0000000000000000e+00  -3.9749367787309858e-01 3.3252877491859723e+00 0.0000000000000000e+00  -5.5558737562771443e-01 3.6325083167058128e+00 0.0000000000000000e+00  -7.2576219287587351e-01 3.9519636866506009e+00 0.0000000000000000e+00  -9.2259562187571564e-01 4.2888635220614706e+00 0.0000000000000000e+00  -1.1312825310423016e+00 4.6366961750384714e+00 0.0000000000000000e+00  -1.3699048656849619e+00 5.0019470810533253e+00 0.0000000000000000e+00  -1.6192555382519853e+00 5.3767270998720438e+00 0.0000000000000000e+00  -1.8984523032082401e+00 5.7681334677770089e+00 0.0000000000000000e+00  -2.1817615627478091e+00 6.1634704345893425e+00 0.0000000000000000e+00  -2.4878369710354824e+00 6.5633131463805947e+00 0.0000000000000000e+00  0.0000000000000000e+00 0.0000000000000000e+00 0.0000000000000000e+00  -3.7785235476492054e-04 8.0347057252794604e-02 0.0000000000000000e+00  8.0676747353755959e-03 1.5493077036485778e-01 0.0000000000000000e+00  2.2639371295412290e-02 2.2167655801439337e-01 0.0000000000000000e+00  4.4400662772509765e-02 2.8591436519869229e-01 0.0000000000000000e+00  7.0918465559441646e-02 3.4802030934044154e-01 0.0000000000000000e+00  1.0174451981805642e-01 4.1269019656508060e-01 0.0000000000000000e+00  1.3370800430936108e-01 4.8120070336226145e-01 0.0000000000000000e+00  1.6599885090406832e-01 5.5712467789413889e-01 0.0000000000000000e+00  1.9498763007777453e-01 6.4182558730519834e-01 0.0000000000000000e+00  2.2015634222048389e-01 7.3770939524041712e-01 0.0000000000000000e+00  2.3777292982729201e-01 8.4598584244664798e-01 0.0000000000000000e+00  2.4805207509833690e-01 9.6781549945198053e-01 0.0000000000000000e+00  2.4735048479602842e-01 1.1044001323404269e+00 0.0000000000000000e+00  2.3653129182936963e-01 1.2556319802317775e+00 0.0000000000000000e+00  2.1245693862476042e-01 1.4229792225053641e+00 0.0000000000000000e+00  1.7622633478041608e-01 1.6052721447319394e+00 0.0000000000000000e+00  1.2543475331008816e-01 1.8042428650371476e+00 0.0000000000000000e+00  6.0963537310486031e-02 2.0179976754361468e+00 0.0000000000000000e+00  -1.8564999863274704e-02 2.2486188142102761e+00 0.0000000000000000e+00  -1.1351938726789594e-01 2.4933620537062002e+00 0.0000000000000000e+00  -2.2344354302684952e-01 2.7551327646975246e+00 0.0000000000000000e+00  -3.5112853090225721e-01 3.0302341550395488e+00 0.0000000000000000e+00  -4.9359160776999073e-01 3.3224694494777918e+00 0.0000000000000000e+00  -6.5620181814013501e-01 3.6276143943442185e+00 0.0000000000000000e+00  -8.3364008482672736e-01 3.9496442977748685e+00 0.0000000000000000e+00  -1.0334330337911666e+00 4.2844795252157812e+00 0.0000000000000000e+00  -1.2484569810271753e+00 4.6352446325192203e+00 0.0000000000000000e+00  -1.4876616362051096e+00 4.9994628935247887e+00 0.0000000000000000e+00  -1.7407239480902419e+00 5.3778138443936987e+00 0.0000000000000000e+00  -2.0164767690627867e+00 5.7694363561059534e+00 0.0000000000000000e+00  -2.2990075891496962e+00 6.1683807761229490e+00 0.0000000000000000e+00  -2.5988731323985466e+00 6.5716596743948665e+00 0.0000000000000000e+00  0.0000000000000000e+00 0.0000000000000000e+00 0.0000000000000000e+00  3.9475069254148714e-03 7.9530038276945672e-02 0.0000000000000000e+00  1.4405674163620218e-02 1.4873859366342687e-01 0.0000000000000000e+00  3.0652466173892168e-02 2.0987149933282892e-01 0.0000000000000000e+00  5.3126587280658825e-02 2.6924341247527739e-01 0.0000000000000000e+00  8.0504090117123658e-02 3.2767130483422352e-01 0.0000000000000000e+00  1.1025963888142194e-01 3.9009856717359731e-01 0.0000000000000000e+00  1.4160277135822411e-01 4.5762224205295943e-01 0.0000000000000000e+00  1.7062073652005222e-01 5.3376557884947295e-01 0.0000000000000000e+00  1.9722044479025072e-01 6.1966848782341588e-01 0.0000000000000000e+00  2.1676656387547880e-01 7.1761063191919894e-01 0.0000000000000000e+00  2.3036377371100039e-01 8.2838497221520990e-01 0.0000000000000000e+00  2.3287997467778571e-01 9.5327518782086562e-01 0.0000000000000000e+00  2.2674452277931559e-01 1.0926401249908042e+00 0.0000000000000000e+00  2.0665458678646428e-01 1.2470948534062736e+00 0.0000000000000000e+00  1.7624707330014958e-01 1.4166992010346482e+00 0.0000000000000000e+00  1.2986223662021068e-01 1.6016531144986612e+00 0.0000000000000000e+00  7.2438856140425029e-02 1.8017945015769163e+00 0.0000000000000000e+00  -2.4351239638081743e-03 2.017465431870084