<?xml version="1.0"?>
<VTKFile type="UnstructuredGrid"  version="0.1"  >
<UnstructuredGrid>
<Piece  NumberOfPoints="891" NumberOfCells="1664">
<Points>
<DataArray  type="Float64"  NumberOfComponents="3"  format="ascii">0 0 0  1.5 1.375 0  3 2.75 0  4.5 4.125 0  6 5.5 0  7.5 6.875 0  9 8.25 0  10.5 9.625 0  12 11 0  13.5 12.375 0  15 13.75 0  16.5 15.125 0  18 16.5 0  19.5 17.875 0  21 19.25 0  22.5 20.625 0  24 22 0  25.5 23.375 0  27 24.75 0  28.5 26.125 0  30 27.5 0  31.5 28.875 0  33 30.25 0  34.5 31.625 0  36 33 0  37.5 34.375 0  39 35.75 0  40.5 37.125 0  42 38.5 0  43.5 39.875 0  45 41.25 0  46.5 42.625 0  48 44 0  0 1.692307692307692 0  1.5 3.033653846153846 0  3 4.375 0  4.5 5.716346153846153 0  6 7.057692307692307 0  7.5 8.399038461538462 0  9 9.740384615384615 0  10.5 11.08173076923077 0  12 12.42307692307692 0  13.5 13.76442307692308 0  15 15.10576923076923 0  16.5 16.44711538461538 0  18 17.78846153846154 0  19.5 19.12980769230769 0  21 20.47115384615385 0  22.5 21.8125 0  24 23.15384615384615 0  25.5 24.49519230769231 0  27 25.83653846153846 0  28.5 27.17788461538462 0  30 28.51923076923077 0  31.5 29.86057692307692 0  33 31.20192307692308 0  34.5 32.54326923076923 0  36 33.88461538461539 0  37.5 35.22596153846154 0  39 36.56730769230769 0  40.5 37.90865384615385 0  42 39.25 0  43.5 40.59134615384615 0  45 41.93269230769231 0  46.5 43.27403846153846 0  48 44.61538461538461 0  0 3.384615384615385 0  1.5 4.692307692307692 0  3 6 0  4.5 7.307692307692307 0  6 8.615384615384615 0  7.5 9.923076923076923 0  9 11.23076923076923 0  10.5 12.53846153846154 0  12 13.84615384615385 0  13.5 15.15384615384615 0  15 16.46153846153846 0  16.5 17.76923076923077 0  18 19.07692307692308 0  19.5 20.38461538461538 0  21 21.69230769230769 0  22.5 23 0  24 24.30769230769231 0  25.5 25.61538461538461 0  27 26.92307692307692 0  28.5 28.23076923076923 0  30 29.53846153846154 0  31.5 30.84615384615385 0  33 32.15384615384615 0  34.5 33.46153846153846 0  36 34.76923076923077 0  37.5 36.07692307692308 0  39 37.38461538461539 0  40.5 38.69230769230769 0  42 40 0  43.5 41.30769230769231 0  45 42.61538461538461 0  46.5 43.92307692307692 0  48 45.23076923076923 0  0 5.076923076923078 0  1.5 6.350961538461538 0  3 7.625 0  4.5 8.899038461538462 0  6 10.17307692307692 0  7.5 11.44711538461539 0  9 12.72115384615385 0  10.5 13.99519230769231 0  12 15.26923076923077 0  13.5 16.54326923076923 0  15 17.81730769230769 0  16.5 19.09134615384615 0  18 20.36538461538462 0  19.5 21.63942307692308 0  21 22.91346153846154 0  22.5 24.1875 0  24 25.46153846153846 0  25.5 26.73557692307692 0  27 28.00961538461539 0  28.5 29.28365384615385 0  30 30.55769230769231 0  31.5 31.83173076923077 0  33 33.10576923076923 0  34.5 34.37980769230769 0  36 35.65384615384615 0  37.5 36.92788461538461 0  39 38.20192307692308 0  40.5 39.47596153846154 0  42 40.75 0  43.5 42.02403846153846 0  45 43.29807692307692 0  46.5 44.57211538461539 0  48 45.84615384615385 0  0 6.769230769230769 0  1.5 8.009615384615383 0  3 9.25 0  4.5 10.49038461538461 0  6 11.73076923076923 0  7.5 12.97115384615384 0  9 14.21153846153846 0  10.5 15.45192307692308 0  12 16.69230769230769 0  13.5 17.93269230769231 0  15 19.17307692307692 0  16.5 20.41346153846154 0  18 21.65384615384615 0  19.5 22.89423076923077 0  21 24.13461538461538 0  22.5 25.375 0  24 26.61538461538461 0  25.5 27.85576923076923 0  27 29.09615384615385 0  28.5 30.33653846153846 0  30 31.57692307692308 0  31.5 32.81730769230769 0  33 34.05769230769231 0  34.5 35.29807692307692 0  36 36.53846153846154 0  37.5 37.77884615384615 0  39 39.01923076923077 0  40.5 40.25961538461539 0  42 41.5 0  43.5 42.74038461538461 0  45 43.98076923076923 0  46.5 45.22115384615385 0  48 46.46153846153846 0  0 8.461538461538462 0  1.5 9.668269230769232 0  3 10.875 0  4.5 12.08173076923077 0  6 13.28846153846154 0  7.5 14.49519230769231 0  9 15.70192307692308 0  10.5 16.90865384615385 0  12 18.11538461538461 0  13.5 19.32211538461539 0  15 20.52884615384615 0  16.5 21.73557692307692 0  18 22.94230769230769 0  19.5 24.14903846153846 0  21 25.35576923076923 0  22.5 26.5625 0  24 27.76923076923077 0  25.5 28.97596153846154 0  27 30.18269230769231 0  28.5 31.38942307692308 0  30 32.59615384615385 0  31.5 33.80288461538461 0  33 35.00961538461539 0  34.5 36.21634615384615 0  36 37.42307692307692 0  37.5 38.62980769230769 0  39 39.83653846153846 0  40.5 41.04326923076923 0  42 42.25 0  43.5 43.45673076923077 0  45 44.66346153846154 0  46.5 45.87019230769231 0  48 47.07692307692308 0  0 10.15384615384616 0  1.5 11.32692307692308 0  3 12.5 0  4.5 13.67307692307692 0  6 14.84615384615385 0  7.5 16.01923076923077 0  9 17.19230769230769 0  10.5 18.36538461538461 0  12 19.53846153846154 0  13.5 20.71153846153846 0  15 21.88461538461539 0  16.5 23.05769230769231 0  18 24.23076923076923 0  19.5 25.40384615384615 0  21 26.57692307692308 0  22.5 27.75 0  24 28.92307692307692 0  25.5 30.09615384615385 0  27 31.26923076923077 0  28.5 32.44230769230769 0  30 33.61538461538461 0  31.5 34.78846153846154 0  33 35.96153846153846 0  34.5 37.13461538461539 0  36 38.30769230769231 0  37.5 39.48076923076923 0  39 40.65384615384615 0  40.5 41.82692307692308 0  42 43 0  43.5 44.17307692307692 0  45 45.34615384615385 0  46.5 46.51923076923077 0  48 47.69230769230769 0  0 11.84615384615384 0  1.5 12.98557692307692 0  3 14.125 0  4.5 15.26442307692308 0  6 16.40384615384615 0  7.5 17.54326923076923 0  9 18.68269230769231 0  10.5 19.82211538461539 0  12 20.96153846153846 0  13.5 22.10096153846154 0  15 23.24038461538461 0  16.5 24.37980769230769 0  18 25.51923076923077 0  19.5 26.65865384615385 0  21 27.79807692307692 0  22.5 28.9375 0  24 30.07692307692308 0  25.5 31.21634615384615 0  27 32.35576923076923 0  28.5 33.49519230769231 0  30 34.63461538461539 0  31.5 35.77403846153846 0  33 36.91346153846154 0  34.5 38.05288461538461 0  36 39.19230769230769 0  37.5 40.33173076923077 0  39 41.47115384615385 0  40.5 42.61057692307692 0  42 43.75 0  43.5 44.88942307692308 0  45 46.02884615384615 0  46.5 47.16826923076923 0  48 48.30769230769231 0  0 13.53846153846154 0  1.5 14.64423076923077 0  3 15.75 0  4.5 16.85576923076923 0  6 17.96153846153846 0  7.5 19.06730769230769 0  9 20.17307692307692 0  10.5 21.27884615384615 0  12 22.38461538461538 0  13.5 23.49038461538461 0  15 24.59615384615385 0  16.5 25.70192307692307 0  18 26.80769230769231 0  19.5 27.91346153846154 0  21 29.01923076923077 0  22.5 30.125 0  24 31.23076923076923 0  25.5 32.33653846153846 0  27 33.44230769230769 0  28.5 34.54807692307692 0  30 35.65384615384615 0  31.5 36.75961538461539 0  33 37.86538461538461 0  34.5 38.97115384615385 0  36 40.07692307692308 0  37.5 41.18269230769231 0  39 42.28846153846154 0  40.5 43.39423076923077 0  42 44.5 0  43.5 45.60576923076923 0  45 46.71153846153846 0  46.5 47.81730769230769 0  48 48.92307692307692 0  0 15.23076923076923 0  1.5 16.30288461538461 0  3 17.375 0  4.5 18.44711538461539 0  6 19.51923076923077 0  7.5 20.59134615384615 0  9 21.66346153846154 0  10.5 22.73557692307693 0  12 23.80769230769231 0  13.5 24.87980769230769 0  15 25.95192307692308 0  16.5 27.02403846153846 0  18 28.09615384615385 0  19.5 29.16826923076923 0  21 30.24038461538461 0  22.5 31.3125 0  24 32.38461538461539 0  25.5 33.45673076923077 0  27 34.52884615384615 0  28.5 35.60096153846154 0  30 36.67307692307692 0  31.5 37.74519230769231 0  33 38.81730769230769 0  34.5 39.88942307692308 0  36 40.96153846153846 0  37.5 42.03365384615385 0  39 43.10576923076923 0  40.5 44.17788461538461 0  42 45.25 0  43.5 46.32211538461539 0  45 47.39423076923077 0  46.5 48.46634615384615 0  48 49.53846153846154 0  0 16.92307692307692 0  1.5 17.96153846153846 0  3 19 0  4.5 20.03846153846154 0  6 21.07692307692308 0  7.5 22.11538461538461 0  9 23.15384615384615 0  10.5 24.19230769230769 0  12 25.23076923076923 0  13.5 26.26923076923077 0  15 27.30769230769231 0  16.5 28.34615384615385 0  18 29.38461538461539 0  19.5 30.42307692307692 0  21 31.46153846153846 0  22.5 32.5 0  24 33.53846153846154 0  25.5 34.57692307692308 0  27 35.61538461538461 0  28.5 36.65384615384615 0  30 37.69230769230769 0  31.5 38.73076923076923 0  33 39.76923076923077 0  34.5 40.80769230769231 0  36 41.84615384615385 0  37.5 42.88461538461539 0  39 43.92307692307692 0  40.5 44.96153846153846 0  42 46 0  43.5 47.03846153846154 0  45 48.07692307692308 0  46.5 49.11538461538461 0  48 50.15384615384615 0  0 18.61538461538462 0  1.5 19.62019230769231 0  3 20.625 0  4.5 21.62980769230769 0  6 22.63461538461538 0  7.5 23.63942307692308 0  9 24.64423076923077 0  10.5 25.64903846153846 0  12 26.65384615384615 0  13.5 27.65865384615385 0  15 28.66346153846154 0  16.5 29.66826923076923 0  18 30.67307692307692 0  19.5 31.67788461538461 0  21 32.68269230769231 0  22.5 33.6875 0  24 34.69230769230769 0  25.5 35.69711538461539 0  27 36.70192307692307 0  28.5 37.70673076923077 0  30 38.71153846153846 0  31.5 39.71634615384615 0  33 40.72115384615385 0  34.5 41.72596153846154 0  36 42.73076923076923 0  37.5 43.73557692307692 0  39 44.74038461538461 0  40.5 45.74519230769231 0  42 46.75 0  43.5 47.75480769230769 0  45 48.75961538461539 0  46.5 49.76442307692308 0  48 50.76923076923077 0  0 20.30769230769231 0  1.5 21.27884615384615 0  3 22.25 0  4.5 23.22115384615385 0  6 24.19230769230769 0  7.5 25.16346153846154 0  9 26.13461538461538 0  10.5 27.10576923076923 0  12 28.07692307692308 0  13.5 29.04807692307692 0  15 30.01923076923077 0  16.5 30.99038461538461 0  18 31.96153846153846 0  19.5 32.93269230769231 0  21 33.90384615384615 0  22.5 34.875 0  24 35.84615384615385 0  25.5 36.81730769230769 0  27 37.78846153846154 0  28.5 38.75961538461539 0  30 39.73076923076923 0  31.5 40.70192307692308 0  33 41.67307692307692 0  34.5 42.64423076923077 0  36 43.61538461538461 0  37.5 44.58653846153846 0  39 45.55769230769231 0  40.5 46.52884615384615 0  42 47.5 0  43.5 48.47115384615385 0  45 49.44230769230769 0  46.5 50.41346153846154 0  48 51.38461538461539 0  0 22 
[...]
<PointData  Vectors="displacement"> 
<DataArray  type="Float64"  Name="displacement"  NumberOfComponents="3" format="ascii">0.0000000000000000e+00 0.0000000000000000e+00 0.0000000000000000e+00  2.5607282005387527e-03 1.0255866398526725e-01 0.0000000000000000e+00  1.8405415149872321e-03 2.0205392509762701e-01 0.0000000000000000e+00  1.1058802651872082e-03 2.9677146233431667e-01 0.0000000000000000e+00  2.8377490983021950e-03 3.8652000533710690e-01 0.0000000000000000e+00  8.9730059235918515e-03 4.7201233981018531e-01 0.0000000000000000e+00  2.0922758869228800e-02 5.5478212018506556e-01 0.0000000000000000e+00  3.9420876306593043e-02 6.3707546819161220e-01 0.0000000000000000e+00  6.4431893661977477e-02 7.2160990144452453e-01 0.0000000000000000e+00  9.5176855267919039e-02 8.1129306585224559e-01 0.0000000000000000e+00  1.3023833098214246e-01 9.0897799037050075e-01 0.0000000000000000e+00  1.6770085809402455e-01 1.0172784459879600e+00 0.0000000000000000e+00  2.0530274837123494e-01 1.1384430445334937e+00 0.0000000000000000e+00  2.4058692754557662e-01 1.2742827669392875e+00 0.0000000000000000e+00  2.7104127783192050e-01 1.4261470023417302e+00 0.0000000000000000e+00  2.9421925854067099e-01 1.5949416737878299e+00 0.0000000000000000e+00  3.0783295986745401e-01 1.7811801808175112e+00 0.0000000000000000e+00  3.0981378696293738e-01 1.9850555058576809e+00 0.0000000000000000e+00  2.9834001238130381e-01 2.2065209913966108e+00 0.0000000000000000e+00  2.7183448948550609e-01 2.4453682802653494e+00 0.0000000000000000e+00  2.2893895024297170e-01 2.7012934245247715e+00 0.0000000000000000e+00  1.6847282825820079e-01 2.9739454699605448e+00 0.0000000000000000e+00  8.9384215420146587e-02 3.2629547951893270e+00 0.0000000000000000e+00  -9.3006776780861951e-03 3.5679401701576445e+00 0.0000000000000000e+00  -1.2852255503988208e-01 3.8884956570132383e+00 0.0000000000000000e+00  -2.6922088066999483e-01 4.2241670300683500e+00 0.0000000000000000e+00  -4.3236991101631478e-01 4.5744300665092723e+00 0.0000000000000000e+00  -6.1910326471904831e-01 4.9385998163106288e+00 0.0000000000000000e+00  -8.3088604569114644e-01 5.3154450935574289e+00 0.0000000000000000e+00  -1.0689908397526509e+00 5.7028179948423459e+00 0.0000000000000000e+00  -1.3330507604471911e+00 6.0995506093888032e+00 0.0000000000000000e+00  -1.6266494042317499e+00 6.5065832316444405e+00 0.0000000000000000e+00  -1.9715978779059968e+00 6.9041967862816715e+00 0.0000000000000000e+00  0.0000000000000000e+00 0.0000000000000000e+00 0.0000000000000000e+00  7.6052581964823434e-04 1.0127367909770603e-01 0.0000000000000000e+00  4.1048539778937136e-04 1.9945375886214955e-01 0.0000000000000000e+00  2.0121765527155375e-03 2.9314388015909676e-01 0.0000000000000000e+00  7.5930320243243598e-03 3.8209037906339949e-01 0.0000000000000000e+00  1.8547144651168506e-02 4.6699065819194391e-01 0.0000000000000000e+00  3.5647916896283743e-02 5.4942174944958899e-01 0.0000000000000000e+00  5.8967432017335245e-02 6.3166179211687257e-01 0.0000000000000000e+00  8.7878591732698408e-02 7.1642443722342808e-01 0.0000000000000000e+00  1.2114400621931745e-01 8.0658521399815697e-01 0.0000000000000000e+00  1.5704577706563910e-01 9.0494789085842442e-01 0.0000000000000000e+00  1.9352470713604789e-01 1.0140661244745224e+00 0.0000000000000000e+00  2.2831603262785544e-01 1.1361217417075520e+00 0.0000000000000000e+00  2.5907566928709419e-01 1.2728571831394575e+00 0.0000000000000000e+00  2.8349122734396959e-01 1.4255574148564527e+00 0.0000000000000000e+00  2.9937167435112666e-01 1.5950736453450527e+00 0.0000000000000000e+00  3.0471072599968840e-01 1.7818782400093518e+00 0.0000000000000000e+00  2.9772173498338650e-01 1.9861384175403352e+00 0.0000000000000000e+00  2.7684520310976241e-01 2.2077962064574601e+00 0.0000000000000000e+00  2.4073314217674172e-01 2.4466437241618286e+00 0.0000000000000000e+00  1.8821660782718969e-01 2.7023856438288165e+00 0.0000000000000000e+00  1.1826341321347486e-01 2.9746839445996698e+00 0.0000000000000000e+00  2.9932286366738670e-02 3.2631828190172811e+00 0.0000000000000000e+00  -7.7671859560654893e-02 3.5675136902218165e+00 0.0000000000000000e+00  -2.0543803063054347e-01 3.8872832079757207e+00 0.0000000000000000e+00  -3.5428236818424247e-01 4.2220509597161637e+00 0.0000000000000000e+00  -5.2518374115489774e-01 4.5712897441258296e+00 0.0000000000000000e+00  -7.1925980468362882e-01 4.9342536605484169e+00 0.0000000000000000e+00  -9.3787012741063247e-01 5.3096846326425604e+00 0.0000000000000000e+00  -1.1824522305540404e+00 5.6958679586359713e+00 0.0000000000000000e+00  -1.4539503435522294e+00 6.0921082569009757e+00 0.0000000000000000e+00  -1.7555893050579072e+00 6.4969994199587555e+00 0.0000000000000000e+00  -2.0988480174643680e+00 6.8930080336436816e+00 0.0000000000000000e+00  0.0000000000000000e+00 0.0000000000000000e+00 0.0000000000000000e+00  2.2377081927939208e-05 1.0051038523541451e-01 0.0000000000000000e+00  7.4250404293316793e-04 1.9750335728404086e-01 0.0000000000000000e+00  4.9210300995046604e-03 2.8970789403006336e-01 0.0000000000000000e+00  1.4181090108574572e-02 3.7698886867301595e-01 0.0000000000000000e+00  2.9432172000113308e-02 4.6026178062380835e-01 0.0000000000000000e+00  5.0886422710080259e-02 5.4132767743994525e-01 0.0000000000000000e+00  7.8053514408839786e-02 6.2261947962811837e-01 0.0000000000000000e+00  1.0982029833719047e-01 7.0692066825781463e-01 0.0000000000000000e+00  1.4458426226234425e-01 7.9710539806979508e-01 0.0000000000000000e+00  1.8039794127672995e-01 8.9592365699866561e-01 0.0000000000000000e+00  2.1510461311114970e-01 1.0058397491908628e+00 0.0000000000000000e+00  2.4646018097070099e-01 1.1289258308048544e+00 0.0000000000000000e+00  2.7223901639487563e-01 1.2668086436317858e+00 0.0000000000000000e+00  2.9032039138944604e-01 1.4206640942722950e+00 0.0000000000000000e+00  2.9875174381655450e-01 1.5912508105937277e+00 0.0000000000000000e+00  2.9578639774976673e-01 1.7789711258403214e+00 0.0000000000000000e+00  2.7989590590126934e-01 1.9839468050248101e+00 0.0000000000000000e+00  2.4975997303866926e-01 2.2060974630300385e+00 0.0000000000000000e+00  2.0423914117132780e-01 2.4452117670841274e+00 0.0000000000000000e+00  1.4233653932638882e-01 2.7010045477018627e+00 0.0000000000000000e+00  6.3154855110942973e-02 2.9731560830123307e+00 0.0000000000000000e+00  -3.4146579975540776e-02 3.2613324405992348e+00 0.0000000000000000e+00  -1.5039161810171134e-01 3.5651878686732599e+00 0.0000000000000000e+00  -2.8642266592493765e-01 3.8843523552963171e+00 0.0000000000000000e+00  -4.4313109493794578e-01 4.2184065467153795e+00 0.0000000000000000e+00  -6.2148807677809803e-01 4.5668280978247697e+00 0.0000000000000000e+00  -8.2260276024988133e-01 4.9288602904404319e+00 0.0000000000000000e+00  -1.0478239338087803e+00 5.3033499546359462e+00 0.0000000000000000e+00  -1.2987260814105017e+00 5.6890228293880378e+00 0.0000000000000000e+00  -1.5765708610155038e+00 6.0853386956463762e+00 0.0000000000000000e+00  -1.8829727983655886e+00 6.4893331776941743e+00 0.0000000000000000e+00  -2.2202030890197517e+00 6.8851134260522473e+00 0.0000000000000000e+00  0.0000000000000000e+00 0.0000000000000000e+00 0.0000000000000000e+00  1.1953129399070386e-04 9.9853886774150136e-02 0.0000000000000000e+00  2.4503453202284011e-03 1.9516100030634900e-01 0.0000000000000000e+00  9.3570775989199727e-03 2.8499562718438687e-01 0.0000000000000000e+00  2.2072190723951259e-02 3.6964251330771380e-01 0.0000000000000000e+00  4.1051422589131949e-02 4.5043847195339315e-01 0.0000000000000000e+00  6.6010553657543714e-02 5.2950589220839850e-01 0.0000000000000000e+00  9.5992649530458399e-02 6.0946245997452519e-01 0.0000000000000000e+00  1.2950331160831988e-01 6.9315238919305922e-01 0.0000000000000000e+00  1.6466882445572942e-01 7.8341565553717474e-01 0.0000000000000000e+00  1.9938502949473849e-01 8.8290229328131287e-01 0.0000000000000000e+00  2.3144722946919374e-01 9.9393637534349422e-01 0.0000000000000000e+00  2.5866014779648305e-01 1.1184317963033432e+00 0.0000000000000000e+00  2.7892696176767978e-01 1.2578581418938064e+00 0.0000000000000000e+00  2.9031514099900857e-01 1.4132505900327537e+00 0.0000000000000000e+00  2.9109716399365254e-01 1.5852540605691743e+00 0.0000000000000000e+00  2.7976608501400058e-01 1.7741895649175023e+00 0.0000000000000000e+00  2.5502844443947226e-01 1.9801303093303353e+00 0.0000000000000000e+00  2.1577925156927505e-01 2.2029764805113041e+00 0.0000000000000000e+00  1.6106509396480986e-01 2.4425202732902696e+00 0.0000000000000000e+00  9.0041581566083689e-02 2.6984958694251513e+00 0.0000000000000000e+00  1.9303980966751165e-03 2.9706120315430264e+00 0.0000000000000000e+00  -1.0402048786571140e-01 3.2585673076960968e+00 0.0000000000000000e+00  -2.2857190144649644e-01 3.5620495517080073e+00 0.0000000000000000e+00  -3.7252371193319977e-01 3.8807222304886411e+00 0.0000000000000000e+00  -5.3674079979092981e-01 4.2141963821256718e+00 0.0000000000000000e+00  -7.2218074660278320e-01 4.5619735703144331e+00 0.0000000000000000e+00  -9.2994888379342733e-01 4.9233454006452035e+00 0.0000000000000000e+00  -1.1613903867430808e+00 5.2973570094463494e+00 0.0000000000000000e+00  -1.4180277643135362e+00 5.6831391752102025e+00 0.0000000000000000e+00  -1.7006978657679397e+00 6.0801282092987412e+00 0.0000000000000000e+00  -2.0089582201616945e+00 6.4843035187209335e+00 0.0000000000000000e+00  -2.3385728294022639e+00 6.8814259903892747e+00 0.0000000000000000e+00  0.0000000000000000e+00 0.0000000000000000e+00 0.0000000000000000e+00  8.3119437286584708e-04 9.8711877613604407e-02 0.0000000000000000e+00  5.0620233757074900e-03 1.9146753266142463e-01 0.0000000000000000e+00  1.4665441907012498e-02 2.7800194251840005e-01 0.0000000000000000e+00  3.0498836714702503e-02 3.5924483347937336e-01 0.0000000000000000e+00  5.2588059731094192e-02 4.3704528699497569e-01 0.0000000000000000e+00  8.0209841115116032e-02 5.1385402754993037e-01 0.0000000000000000e+00  1.1202264672119852e-01 5.9244362381034077e-01 0.0000000000000000e+00  1.4623683544574034e-01 6.7567512338509816e-01 0.0000000000000000e+00  1.8078289525261701e-01 7.6630524107236486e-01 0.0000000000000000e+00  2.1345888454890513e-01 8.6683450276587615e-01 0.0000000000000000e+00  2.4205390622559436e-01 9.7940079432579408e-01 0.0000000000000000e+00  2.6444759773504445e-01 1.1057209214688768e+00 0.0000000000000000e+00  2.7868437153940467e-01 1.2470780077256751e+00 0.0000000000000000e+00  2.8302078801316194e-01 1.4043476286229111e+00 0.0000000000000000e+00  2.7594595486325713e-01 1.5780520156350146e+00 0.0000000000000000e+00  2.5617734391549929e-01 1.7684301169148988e+00 0.0000000000000000e+00  2.2263681569964625e-01 1.9755118195417323e+00 0.0000000000000000e+00  1.7441318612074164e-01 2.1991867735440729e+00 0.0000000000000000e+00  1.1071801833623970e-01 2.4392612655432893e+00 0.0000000000000000e+00  3.0840528081033960e-02 2.6954996877628901e+00 0.0000000000000000e+00  -6.5894126054139260e-02 2.9676497520816452e+00 0.0000000000000000e+00  -1.8016089596178284e-01 3.2554524523326740e+00 0.0000000000000000e+00  -3.1266484228163327e-01 3.5586388282454191e+00 0.0000000000000000e+00  -4.6416586238096147e-01 3.8769152324819696e+00 0.0000000000000000e+00  -6.3549995082950395e-01 4.2099351278158981e+00 0.0000000000000000e+00  -8.2760454742459511e-01 4.5572505335524420e+00 0.0000000000000000e+00  -1.0415666453222698e+00 4.9182582619092186e+00 0.0000000000000000e+00  -1.2786625117348980e+00 5.2922553424135943e+00 0.0000000000000000e+00  -1.5401205026220108e+00 5.6787039333774239e+00 0.0000000000000000e+00  -1.8259098527310560e+00 6.0768843436377553e+00 0.0000000000000000e+00  -2.1337498957322927e+00 6.4820468277773617e+00 0.0000000000000000e+00  -2.4559220819974943e+00 6.8816328850429702e+00 0.0000000000000000e+00  0.0000000000000000e+00 0.0000000000000000e+00 0.0000000000000000e+00  1.9203829298991332e-03 9.6579657381009806e-02 0.0000000000000000e+00  8.1120371211590176e-03 1.8577245024393557e-01 0.0000000000000000e+00  2.0231139882117923e-02 2.6820087304332774e-01 0.0000000000000000e+00  3.8767771703885033e-02 3.4552996766238636e-01 0.0000000000000000e+00  6.3333785601373274e-02 4.2011132589716776e-01 0.0000000000000000e+00  9.2814514381642982e-02 4.9467459978304223e-01 0.0000000000000000e+00  1.2554939183570782e-01 5.7209061816596363e-01 0.0000000000000000e+00  1.5951971746003227e-01 6.5518314484289764e-01 0.0000000000000000e+00  1.9251798526068167e-01 7.4657561362858482e-01 0.0000000000000000e+00  2.2229135242248066e-01 8.4857415746551113e-01 0.0000000000000000e+00  2.4665862827469823e-01 9.6309267921920150e-01 0.0000000000000000e+00  2.6359960884487910e-01 1.0916222417084338e+00 0.0000000000000000e+00  2.7131475088713447e-01 1.2352411721831111e+00 0.0000000000000000e+00  2.6825448180258749e-01 1.3946572465901970e+00 0.0000000000000000e+00  2.5312022612062041e-01 1.5702704586471836e+00 0.0000000000000000e+00  2.2484213261692090e-01 1.7622444438120526e+00 0.0000000000000000e+00  1.8254048574885595e-01 1.9705762252820171e+00 0.0000000000000000e+00  1.2547841544534136e-01 2.1951567862564558e+00 0.0000000000000000e+00  5.3012812567240275e-02 2.4358181566556669e+00 0.0000000000000000e+00  -3.5451311854867086e-02 2.6923655169591538e+00 0.0000000000000000e+00  -1.4049990028057641e-01 2.9645948802726334e+00 0.0000000000000000e+00  -2.6274129842653798e-01 3.2522981387355974e+00 0.0000000000000000e+00  -4.0283063823763871e-01 3.5552576411214458e+00 0.0000000000000000e+00  -5.6148869665341583e-01 3.8732316829176838e+00 0.0000000000000000e+00  -7.3951797198576852e-01 4.2059304648454718e+00 0.0000000000000000e+00  -9.3782231718332165e-01 4.5529852972814755e+00 0.0000000000000000e+00  -1.1574316015760342e+00 4.9139422813901676e+00 0.0000000000000000e+00  -1.3994461503032778e+00 5.2883610544092328e+00 0.0000000000000000e+00  -1.6645923164219474e+00 5.6759272649678270e+00 0.0000000000000000e+00  -1.9518330126246539e+00 6.0756542660643511e+00 0.0000000000000000e+00  -2.2576846901144680e+00 6.4822914303198216e+00 0.0000000000000000e+00  -2.5735155527875673e+00 6.8849123794383162e+00 0.0000000000000000e+00  0.0000000000000000e+00 0.0000000000000000e+00 0.0000000000000000e+00  3.1712927039126825e-03 9.3136451139806467e-02 0.0000000000000000e+00  1.1219476312612341e-02 1.7775724234499329e-01 0.0000000000000000e+00  2.5575507817820312e-02 2.5545058706783269e-01 0.0000000000000000e+00  4.6355039142932666e-02 3.2858781035616086e-01 0.0000000000000000e+00  7.2765881689973999e-02 3.9994911284486656e-01 0.0000000000000000e+00  1.0334124708967207e-01 4.7246687747467064e-01 0.0000000000000000e+00  1.3615294583634205e-01 5.4904410730829301e-01 0.0000000000000000e+00  1.6900396568590664e-01 6.3241080928692572e-01 0.0000000000000000e+00  1.9959446523329147e-01 7.2500853304494028e-01 0.0000000000000000e+00  2.2566054308016686e-01 8.2890853735083336e-01 0.0000000000000000e+00  2.4508425600005426e-01 9.4576991819992562e-01 0.0000000000000000e+00  2.5597163478298351e-01 1.0768381737881025e+00 0.0000000000000000e+00  2.5669639795454707e-01 1.2229781577892143e+00 0.0000000000000000e+00  2.4591034217133639e-01 1.3847309620852477e+00 0.0000000000000000e+00  2.2252522539667169e-01 1.5623827285687768e+00 0.0000000000000000e+00  1.8567384500513717e-01 1.7560344143231321e+00 0.0000000000000000e+00  1.3465920701033271e-01 1.9656642492043188e+00 0.0000000000000000e+00  6.8900160666020990e-02 2.1911779636874571e+00 0.0000000000000000e+00  -1.2119908726594596e-02 2.4324449264935653e+00 0.0000000000000000e+00  -1.0889711900551959e-01 2.6893205950479935e+00 0.0000000000000000e+00  -2.2194201973296876e-01 2.9616570250023657e+00 0.0000000000000000e+00  -3.5180548179388460e-01 3.2493037352103640e+00 0.0000000000000000e+00  -4.9909687012490789e-01 3.5521011331791961e+00 0.0000000000000000e+00  -6.6449648393385474e-01 3.8698681891539923e+00 0.0000000000000000e+00  -8.4876465329667794e-01 4.2023867038964111e+00 0.0000000000000000e+00  -1.0527482668331702e+00 4.5493922981932418e+00 0.0000000000000000e+00  -1.2773626307103871e+00 4.9106034022410041e+00 0.0000000000000000e+00  -1.5234201457107424e+00 5.2858118435466785e+00 0.0000000000000000e+00  -1.7910282795212600e+00 5.6747989590681049e+00 0.0000000000000000e+00  -2.0782599887192497e+00 6.0762314808303612e+00 0.0000000000000000e+00  -2.3812203854251401e+00 6.4845459891720543e+00 0.0000000000000000e+00  -2.6921261192037913e+00 6.8903641574479000e+00 0.0000000000000000e+00  0.0000000000000000e+00 0.0000000000000000e+00 0.0000000000000000e+00  4.4170448831879110e-03 8.8250237161522679e-02 0.0000000000000000e+00  1.4114820976454459e-02 1.6737910620292104e-01 0.0000000000000000e+00  3.0368950715955155e-02 2.3988449838739526e-01 0.0000000000000000e+00  5.2902158185627851e-02 3.0873648906345846e-01 0.0000000000000000e+00  8.0526933013265425e-02 3.7703834614951054e-01 0.0000000000000000e+00  1.1145758176799593e-01 4.4783884590147111e-01 0.0000000000000000e+00  1.4353891678899222e-01 5.2400346737130687e-01 0.0000000000000000e+00  1.7443603380607542e-01 6.0811044262252578e-01 0.0000000000000000e+00  2.0179580196621152e-01 7.0237138995125425e-01 0.0000000000000000e+00  2.2338063600533761e-01 8.0858557041578860e-01 0.0000000000000000e+00  2.3716986965677156e-01 9.2813265014167756e-01 0.0000000000000000e+00  2.4142367197936285e-01 1.0620010287315957e+00 0.0000000000000000e+00  2.3470808490918760e-01 1.2108425115503407e+00 0.0000000000000000e+00  2.1588492355992278e-01 1.3750411650237466e+00 0.0000000000000000e+00  1.8407463277537089e-01 1.5547845559548243e+00 0.0000000000000000e+00  1.3860243760303897e-01 1.7501282551946609e+00 0.0000000000000000e+00  7.8938051696401584e-02 1.9610481559765462e+00 0.0000000000000000e+00  4.6373574033341195e-03 2.1874786360319538e+00 0.0000000000000000e+00  -8.4708287750832473e-02 2.4293371583457333e+00 0.0000000000000000e+00  -1.8951229798330702e-01 2.6865373615100907e+00 0.0000000000000000e+00  -3.1022216630773120e-01 2.9589932230542644e+00 0.0000000000000000e+00  -4.4733888310405073e-01 3.2466168275231717e+00 0.0000000000000000e+00  -6.0142826317923259e-01 3.5493119918386422e+00 0.0000000000000000e+00  -7.7312596284467794e-01 3.8669661518101952e+00 0.0000000000000000e+00  -9.6313638429836446e-01 4.1994454168741511e+00 0.0000000000000000e+00  -1.1722173357568162e+00 4.5466052936717141e+00 0.0000000000000000e+00  -1.4011061748265885e+00 4.9083347364052141e+00 0.0000000000000000e+00  -1.6502429651447152e+00 5.2845954317566903e+00 0.0000000000000000e+00  -1.9191113713634327e+00 5.6751391584045034e+00 0.0000000000000000e+00  -2.2051803154070089e+00 6.0782561000400657e+00 0.0000000000000000e+00  -2.5048859017397489e+00 6.4882547135698383e+00 0.0000000000000000e+00  -2.8122154749692712e+00 6.8972294721986378e+00 0.0000000000000000e+00  0.0000000000000000e+00 0.0000000000000000e+00 0.0000000000000000e+00  5.5465595861310260e-03 8.1942477059326196e-02 0.0000000000000000e+00  1.6630474557392239e-02 1.5479535873165345e-01 0.0000000000000000e+00  3.4405142814981297e-02 2.2182032182784875e-01 0.0000000000000000e+00  5.8178895866384694e-02 2.8643993700375486e-01 0.0000000000000000e+00  8.6379923609671380e-02 3.5196413474294580e-01 0.0000000000000000e+00  1.1693237809515103e-01 4.2146835503967595e-01 0.0000000000000000e+00  1.4748721930777983e-01 4.9770786690048824e-01 0.0000000000000000e+00  1.7560662217435222e-01 5.8304868478316774e-01 0.0000000000000000e+00  1.9892154285279620e-01 6.7942435860469175e-01 0.0000000000000000e+00  2.1525938257076238e-01 7.8832832417162790e-01 0.0000000000000000e+00  2.2273326054994505e-01 9.1084272126575283e-01 0.0000000000000000e+00  2.1978742402680143e-01 1.0476959356109863e+00 0.0000000000000000e+00  2.0519998695234729e-01 1.1993362403157390e+00 0.0000000000000000e+00  1.7805068144410516e-01 1.3660083573668798e+00 0.0000000000000000e+00  1.3766530504211433e-01 1.5478224723913239e+00 0.0000000000000000e+00  8.3549385597390280e-02 1.7448095067742646e+00 0.0000000000000000e+00  1.5321829270295987e-02 1.9569606629200096e+00 0.0000000000000000e+00  -6.7343883337862440e-02 2.184252367182941