<?xml version="1.0"?>
<VTKFile type="UnstructuredGrid"  version="0.1"  >
<UnstructuredGrid>
<Piece  NumberOfPoints="891" NumberOfCells="1664">
<Points>
<DataArray  type="Float64"  NumberOfComponents="3"  format="ascii">0 0 0  1.5 1.375 0  3 2.75 0  4.5 4.125 0  6 5.5 0  7.5 6.875 0  9 8.25 0  10.5 9.625 0  12 11 0  13.5 12.375 0  15 13.75 0  16.5 15.125 0  18 16.5 0  19.5 17.875 0  21 19.25 0  22.5 20.625 0  24 22 0  25.5 23.375 0  27 24.75 0  28.5 26.125 0  30 27.5 0  31.5 28.875 0  33 30.25 0  34.5 31.625 0  36 33 0  37.5 34.375 0  39 35.75 0  40.5 37.125 0  42 38.5 0  43.5 39.875 0  45 41.25 0  46.5 42.625 0  48 44 0  0 1.692307692307692 0  1.5 3.033653846153846 0  3 4.375 0  4.5 5.716346153846153 0  6 7.057692307692307 0  7.5 8.399038461538462 0  9 9.740384615384615 0  10.5 11.08173076923077 0  12 12.42307692307692 0  13.5 13.76442307692308 0  15 15.10576923076923 0  16.5 16.44711538461538 0  18 17.78846153846154 0  19.5 19.12980769230769 0  21 20.47115384615385 0  22.5 21.8125 0  24 23.15384615384615 0  25.5 24.49519230769231 0  27 25.83653846153846 0  28.5 27.17788461538462 0  30 28.51923076923077 0  31.5 29.86057692307692 0  33 31.20192307692308 0  34.5 32.54326923076923 0  36 33.88461538461539 0  37.5 35.22596153846154 0  39 36.56730769230769 0  40.5 37.90865384615385 0  42 39.25 0  43.5 40.59134615384615 0  45 41.93269230769231 0  46.5 43.27403846153846 0  48 44.61538461538461 0  0 3.384615384615385 0  1.5 4.692307692307692 0  3 6 0  4.5 7.307692307692307 0  6 8.615384615384615 0  7.5 9.923076923076923 0  9 11.23076923076923 0  10.5 12.53846153846154 0  12 13.84615384615385 0  13.5 15.15384615384615 0  15 16.46153846153846 0  16.5 17.76923076923077 0  18 19.07692307692308 0  19.5 20.38461538461538 0  21 21.69230769230769 0  22.5 23 0  24 24.30769230769231 0  25.5 25.61538461538461 0  27 26.92307692307692 0  28.5 28.23076923076923 0  30 29.53846153846154 0  31.5 30.84615384615385 0  33 32.15384615384615 0  34.5 33.46153846153846 0  36 34.76923076923077 0  37.5 36.07692307692308 0  39 37.38461538461539 0  40.5 38.69230769230769 0  42 40 0  43.5 41.30769230769231 0  45 42.61538461538461 0  46.5 43.92307692307692 0  48 45.23076923076923 0  0 5.076923076923078 0  1.5 6.350961538461538 0  3 7.625 0  4.5 8.899038461538462 0  6 10.17307692307692 0  7.5 11.44711538461539 0  9 12.72115384615385 0  10.5 13.99519230769231 0  12 15.26923076923077 0  13.5 16.54326923076923 0  15 17.81730769230769 0  16.5 19.09134615384615 0  18 20.36538461538462 0  19.5 21.63942307692308 0  21 22.91346153846154 0  22.5 24.1875 0  24 25.46153846153846 0  25.5 26.73557692307692 0  27 28.00961538461539 0  28.5 29.28365384615385 0  30 30.55769230769231 0  31.5 31.83173076923077 0  33 33.10576923076923 0  34.5 34.37980769230769 0  36 35.65384615384615 0  37.5 36.92788461538461 0  39 38.20192307692308 0  40.5 39.47596153846154 0  42 40.75 0  43.5 42.02403846153846 0  45 43.29807692307692 0  46.5 44.57211538461539 0  48 45.84615384615385 0  0 6.769230769230769 0  1.5 8.009615384615383 0  3 9.25 0  4.5 10.49038461538461 0  6 11.73076923076923 0  7.5 12.97115384615384 0  9 14.21153846153846 0  10.5 15.45192307692308 0  12 16.69230769230769 0  13.5 17.93269230769231 0  15 19.17307692307692 0  16.5 20.41346153846154 0  18 21.65384615384615 0  19.5 22.89423076923077 0  21 24.13461538461538 0  22.5 25.375 0  24 26.61538461538461 0  25.5 27.85576923076923 0  27 29.09615384615385 0  28.5 30.33653846153846 0  30 31.57692307692308 0  31.5 32.81730769230769 0  33 34.05769230769231 0  34.5 35.29807692307692 0  36 36.53846153846154 0  37.5 37.77884615384615 0  39 39.01923076923077 0  40.5 40.25961538461539 0  42 41.5 0  43.5 42.74038461538461 0  45 43.98076923076923 0  46.5 45.22115384615385 0  48 46.46153846153846 0  0 8.461538461538462 0  1.5 9.668269230769232 0  3 10.875 0  4.5 12.08173076923077 0  6 13.28846153846154 0  7.5 14.49519230769231 0  9 15.70192307692308 0  10.5 16.90865384615385 0  12 18.11538461538461 0  13.5 19.32211538461539 0  15 20.52884615384615 0  16.5 21.73557692307692 0  18 22.94230769230769 0  19.5 24.14903846153846 0  21 25.35576923076923 0  22.5 26.5625 0  24 27.76923076923077 0  25.5 28.97596153846154 0  27 30.18269230769231 0  28.5 31.38942307692308 0  30 32.59615384615385 0  31.5 33.80288461538461 0  33 35.00961538461539 0  34.5 36.21634615384615 0  36 37.42307692307692 0  37.5 38.62980769230769 0  39 39.83653846153846 0  40.5 41.04326923076923 0  42 42.25 0  43.5 43.45673076923077 0  45 44.66346153846154 0  46.5 45.87019230769231 0  48 47.07692307692308 0  0 10.15384615384616 0  1.5 11.32692307692308 0  3 12.5 0  4.5 13.67307692307692 0  6 14.84615384615385 0  7.5 16.01923076923077 0  9 17.19230769230769 0  10.5 18.36538461538461 0  12 19.53846153846154 0  13.5 20.71153846153846 0  15 21.88461538461539 0  16.5 23.05769230769231 0  18 24.23076923076923 0  19.5 25.40384615384615 0  21 26.57692307692308 0  22.5 27.75 0  24 28.92307692307692 0  25.5 30.09615384615385 0  27 31.26923076923077 0  28.5 32.44230769230769 0  30 33.61538461538461 0  31.5 34.78846153846154 0  33 35.96153846153846 0  34.5 37.13461538461539 0  36 38.30769230769231 0  37.5 39.48076923076923 0  39 40.65384615384615 0  40.5 41.82692307692308 0  42 43 0  43.5 44.17307692307692 0  45 45.34615384615385 0  46.5 46.51923076923077 0  48 47.69230769230769 0  0 11.84615384615384 0  1.5 12.98557692307692 0  3 14.125 0  4.5 15.26442307692308 0  6 16.40384615384615 0  7.5 17.54326923076923 0  9 18.68269230769231 0  10.5 19.82211538461539 0  12 20.96153846153846 0  13.5 22.10096153846154 0  15 23.24038461538461 0  16.5 24.37980769230769 0  18 25.51923076923077 0  19.5 26.65865384615385 0  21 27.79807692307692 0  22.5 28.9375 0  24 30.07692307692308 0  25.5 31.21634615384615 0  27 32.35576923076923 0  28.5 33.49519230769231 0  30 34.63461538461539 0  31.5 35.77403846153846 0  33 36.91346153846154 0  34.5 38.05288461538461 0  36 39.19230769230769 0  37.5 40.33173076923077 0  39 41.47115384615385 0  40.5 42.61057692307692 0  42 43.75 0  43.5 44.88942307692308 0  45 46.02884615384615 0  46.5 47.16826923076923 0  48 48.30769230769231 0  0 13.53846153846154 0  1.5 14.64423076923077 0  3 15.75 0  4.5 16.85576923076923 0  6 17.96153846153846 0  7.5 19.06730769230769 0  9 20.17307692307692 0  10.5 21.27884615384615 0  12 22.38461538461538 0  13.5 23.49038461538461 0  15 24.59615384615385 0  16.5 25.70192307692307 0  18 26.80769230769231 0  19.5 27.91346153846154 0  21 29.01923076923077 0  22.5 30.125 0  24 31.23076923076923 0  25.5 32.33653846153846 0  27 33.44230769230769 0  28.5 34.54807692307692 0  30 35.65384615384615 0  31.5 36.75961538461539 0  33 37.86538461538461 0  34.5 38.97115384615385 0  36 40.07692307692308 0  37.5 41.18269230769231 0  39 42.28846153846154 0  40.5 43.39423076923077 0  42 44.5 0  43.5 45.60576923076923 0  45 46.71153846153846 0  46.5 47.81730769230769 0  48 48.92307692307692 0  0 15.23076923076923 0  1.5 16.30288461538461 0  3 17.375 0  4.5 18.44711538461539 0  6 19.51923076923077 0  7.5 20.59134615384615 0  9 21.66346153846154 0  10.5 22.73557692307693 0  12 23.80769230769231 0  13.5 24.87980769230769 0  15 25.95192307692308 0  16.5 27.02403846153846 0  18 28.09615384615385 0  19.5 29.16826923076923 0  21 30.24038461538461 0  22.5 31.3125 0  24 32.38461538461539 0  25.5 33.45673076923077 0  27 34.52884615384615 0  28.5 35.60096153846154 0  30 36.67307692307692 0  31.5 37.74519230769231 0  33 38.81730769230769 0  34.5 39.88942307692308 0  36 40.96153846153846 0  37.5 42.03365384615385 0  39 43.10576923076923 0  40.5 44.17788461538461 0  42 45.25 0  43.5 46.32211538461539 0  45 47.39423076923077 0  46.5 48.46634615384615 0  48 49.53846153846154 0  0 16.92307692307692 0  1.5 17.96153846153846 0  3 19 0  4.5 20.03846153846154 0  6 21.07692307692308 0  7.5 22.11538461538461 0  9 23.15384615384615 0  10.5 24.19230769230769 0  12 25.23076923076923 0  13.5 26.26923076923077 0  15 27.30769230769231 0  16.5 28.34615384615385 0  18 29.38461538461539 0  19.5 30.42307692307692 0  21 31.46153846153846 0  22.5 32.5 0  24 33.53846153846154 0  25.5 34.57692307692308 0  27 35.61538461538461 0  28.5 36.65384615384615 0  30 37.69230769230769 0  31.5 38.73076923076923 0  33 39.76923076923077 0  34.5 40.80769230769231 0  36 41.84615384615385 0  37.5 42.88461538461539 0  39 43.92307692307692 0  40.5 44.96153846153846 0  42 46 0  43.5 47.03846153846154 0  45 48.07692307692308 0  46.5 49.11538461538461 0  48 50.15384615384615 0  0 18.61538461538462 0  1.5 19.62019230769231 0  3 20.625 0  4.5 21.62980769230769 0  6 22.63461538461538 0  7.5 23.63942307692308 0  9 24.64423076923077 0  10.5 25.64903846153846 0  12 26.65384615384615 0  13.5 27.65865384615385 0  15 28.66346153846154 0  16.5 29.66826923076923 0  18 30.67307692307692 0  19.5 31.67788461538461 0  21 32.68269230769231 0  22.5 33.6875 0  24 34.69230769230769 0  25.5 35.69711538461539 0  27 36.70192307692307 0  28.5 37.70673076923077 0  30 38.71153846153846 0  31.5 39.71634615384615 0  33 40.72115384615385 0  34.5 41.72596153846154 0  36 42.73076923076923 0  37.5 43.73557692307692 0  39 44.74038461538461 0  40.5 45.74519230769231 0  42 46.75 0  43.5 47.75480769230769 0  45 48.75961538461539 0  46.5 49.76442307692308 0  48 50.76923076923077 0  0 20.30769230769231 0  1.5 21.27884615384615 0  3 22.25 0  4.5 23.22115384615385 0  6 24.19230769230769 0  7.5 25.16346153846154 0  9 26.13461538461538 0  10.5 27.10576923076923 0  12 28.07692307692308 0  13.5 29.04807692307692 0  15 30.01923076923077 0  16.5 30.99038461538461 0  18 31.96153846153846 0  19.5 32.93269230769231 0  21 33.90384615384615 0  22.5 34.875 0  24 35.84615384615385 0  25.5 36.81730769230769 0  27 37.78846153846154 0  28.5 38.75961538461539 0  30 39.73076923076923 0  31.5 40.70192307692308 0  33 41.67307692307692 0  34.5 42.64423076923077 0  36 43.61538461538461 0  37.5 44.58653846153846 0  39 45.55769230769231 0  40.5 46.52884615384615 0  42 47.5 0  43.5 48.47115384615385 0  45 49.44230769230769 0  46.5 50.41346153846154 0  48 51.38461538461539 0  0 22 
[...]
<PointData  Scalars="pressure"> 
<DataArray  type="Float64"  Name="pressure"  format="ascii">2.1297317972958698e+01  2.1394307728919649e+01  2.1555717379654013e+01  2.1675146855165742e+01  2.1696674788152897e+01  2.1595943845329568e+01  2.1366282941057587e+01  2.1015325693628778e+01  2.0562951254338305e+01  2.0037320603302216e+01  1.9470131836888584e+01  1.8892523845092274e+01  1.8332145669146282e+01  1.7811349737134950e+01  1.7346338237117273e+01  1.6947102038619683e+01  1.6617992570457474e+01  1.6358748069825634e+01  1.6165782044156344e+01  1.6033550812490713e+01  1.5955853120716432e+01  1.5926966145726693e+01  1.5942548575667953e+01  1.6000233968391630e+01  1.6100100160036163e+01  1.6246331809163717e+01  1.6451433385611388e+01  1.6734504520088592e+01  1.7093343492094078e+01  1.7509917594757514e+01  1.8260680541384641e+01  2.0062137877274523e+01  2.1615747743481219e+01  2.1374833088002823e+01  2.1432788501933139e+01  2.1543310512044005e+01  2.1597208247119450e+01  2.1554856072874347e+01  2.1403410418665047e+01  2.1141973590816459e+01  2.0780187372932957e+01  2.0337203626216244e+01  1.9838390961487686e+01  1.9311357428869961e+01  1.8782634401255237e+01  1.8275376519869656e+01  1.7807985352713970e+01  1.7393509552247103e+01  1.7039696931971296e+01  1.6749567101610605e+01  1.6522350622907656e+01  1.6354629522044242e+01  1.6241525903998479e+01  1.6177819303753243e+01  1.6158916339371189e+01  1.6181624527859441e+01  1.6244723067898960e+01  1.6349612425273516e+01  1.6502024105272653e+01  1.6714841972968507e+01  1.7004626039706448e+01  1.7374289855118811e+01  1.7847277549735484e+01  1.8722259746597835e+01  2.0510369807272760e+01  2.1993942391517702e+01  2.1406119970297134e+01  2.1403556095688231e+01  2.1431544411698141e+01  2.1410266271271940e+01  2.1318273374663594e+01  2.1147954966573970e+01  2.0897621234145976e+01  2.0573280670694256e+01  2.0188633726669700e+01  1.9762574548670404e+01  1.9316090803915188e+01  1.8869672261437671e+01  1.8441465158156944e+01  1.8046112724051905e+01  1.7694201120103298e+01  1.7392233755703622e+01  1.7143034940541945e+01  1.6946459629559435e+01  1.6800278119199529e+01  1.6701116118500565e+01  1.6645357340135998e+01  1.6629948558475498e+01  1.6653079677372745e+01  1.6714783596045518e+01  1.6817736333138832e+01  1.6968784952158614e+01  1.7180421224129198e+01  1.7467366395085815e+01  1.7841790082409947e+01  1.8365231274167403e+01  1.9328151742009553e+01  2.1013968110939469e+01  2.2300003782888194e+01  2.1341040606512408e+01  2.1277249674212637e+01  2.1239567231249247e+01  2.1177107280740916e+01  2.1075263647078827e+01  2.0923772927347809e+01  2.0716461755288737e+01  2.0454467651506402e+01  2.0146097278281893e+01  1.9804528758764008e+01  1.9445219673581796e+01  1.9083789250046316e+01  1.8734479812111363e+01  1.8409145499506675e+01  1.8116717782245555e+01  1.7863092825175318e+01  1.7651364785814117e+01  1.7482312858979725e+01  1.7355046614550549e+01  1.7267722740967812e+01  1.7218263867145971e+01  1.7205034301981765e+01  1.7227462655225132e+01  1.7286675386373030e+01  1.7386339100600264e+01  1.7533854586690470e+01  1.7741016861744161e+01  1.8022480211709521e+01  1.8401872935662148e+01  1.8965418958917052e+01  1.9957613001931797e+01  2.1433508129274653e+01  2.2386718964557819e+01  2.1171630956830700e+01  2.1068748167270417e+01  2.1006275004580029e+01  2.0947256906565613e+01  2.0873697110097464e+01  2.0769512124872843e+01  2.0624226907479898e+01  2.0435354453822008e+01  2.0207351768147198e+01  1.9949287071889270e+01  1.9672620758139328e+01  1.9389466252969140e+01  1.9111308972281179e+01  1.8848125447675290e+01  1.8607865693614468e+01  1.8396260221658423e+01  1.8216900942813211e+01  1.8071536736927506e+01  1.7960521577224142e+01  1.7883354973813926e+01  1.7839262469546625e+01  1.7827781077438079e+01  1.7849346919790843e+01  1.7905936407606735e+01  1.8001853467094744e+01  1.8144613415779460e+01  1.8345475663822572e+01  1.8620554277125485e+01  1.9003320276660521e+01  1.9585764160150489e+01  2.0536814475823135e+01  2.1711112368735417e+01  2.2255218222019376e+01  2.0921462868123161e+01  2.0814157704629555e+01  2.0773008345414304e+01  2.0757185440225619e+01  2.0740376855336834e+01  2.0701599648108765e+01  2.0628086973976028e+01  2.0515486488296354e+01  2.0365910755491605e+01  2.0185700778752924e+01  1.9983599702916131e+01  1.9769358419171056e+01  1.9552675271458142e+01  1.9342417087102611e+01  1.9146100281264868e+01  1.8969615041162559e+01  1.8817171348801793e+01  1.8691439320062770e+01  1.8593848139591994e+01  1.8525000619778268e+01  1.8485159855870680e+01  1.8474775883122462e+01  1.8495045490227987e+01  1.8548527526678029e+01  1.8639831068569169e+01  1.8776328312589484e+01  1.8969040338377056e+01  1.9235904669512042e+01  1.9615182126939946e+01  2.0185763967946219e+01  2.1027218254233102e+01  2.1843591895738957e+01  2.1971114305948124e+01  2.0631455611277250e+01  2.0556496828581885e+01  2.0576902135348572e+01  2.0633545159567710e+01  2.0691666420060869e+01  2.0728150053525980e+01  2.0730059784049253e+01  2.0692547843873005e+01  2.0616474542410650e+01  2.0506498516126396e+01  2.0369663363217352e+01  2.0214299682601830e+01  2.0049131280374581e+01  1.9882553305020348e+01  1.9722084113311475e+01  1.9574002291678305e+01  1.9443178641248956e+01  1.9333101516879733e+01  1.9246075787227614e+01  1.9183558990349681e+01  1.9146591586763627e+01  1.9136285666161484e+01  1.9154354219974795e+01  1.9203676295846197e+01  1.9288890785742236e+01  1.9417078644636241e+01  1.9599092587432310e+01  1.9853629987524144e+01  2.0216884786684805e+01  2.0740223337581931e+01  2.1416522943886001e+01  2.1857711266283061e+01  2.1612368439259637e+01  2.0348045710574194e+01  2.0337316412427345e+01  2.0448738542945367e+01  2.0596037351748528e+01  2.0738659327503370e+01  2.0854175023159485e+01  2.0930941464848413e+01  2.0964445451286458e+01  2.0955046175055966e+01  2.0906536370511706e+01  2.0825104431035193e+01  2.0718459209178683e+01  2.0595034803750565e+01  2.0463273777076378e+01  2.0331022091314992e+01  2.0205080857962866e+01  2.0090952686761263e+01  1.9992796612759463e+01  1.9913575263517934e+01  1.9855354011241030e+01  1.9819702878190441e+01  1.9808158297668832e+01  1.9822715473689513e+01  1.9866332314618997e+01  1.9943451035921903e+01  2.0060701133718329e+01  2.0228395170083775e+01  2.0463812744282073e+01  2.0794347324936862e+01  2.1236074810048379e+01  2.1710304326186638e+01  2.1791129359135358e+01  2.1242717336740462e+01  2.0115405227687695e+01  2.0192538715335147e+01  2.0412858019108409e+01  2.0659460728341184e+01  2.0889531111632692e+01  2.1083308834819078e+01  2.1231157021889111e+01  2.1329340117293249e+01  2.1378274909430996e+01  2.1381576876989509e+01  2.1345313504357204e+01  2.1277263384980063e+01  2.1186144541646623e+01  2.1080850477493470e+01  2.0969768492321634e+01  2.0860260343464095e+01  2.0758361638949228e+01  2.0668714837983675e+01  2.0594709604376369e+01  2.0538778140013104e+01  2.0502786861241756e+01  2.0488474564848048e+01  2.0497901111523955e+01  2.0533885913300917e+01  2.0600463832918525e+01  2.0703541934678352e+01  2.0852074482973027e+01  2.1059274538092215e+01  2.1338654598738216e+01  2.1669951170463978e+01  2.1924540962309074e+01  2.1680244004693375e+01  2.0902954858226277e+01  1.9971430172883839e+01  2.0151112687073425e+01  2.0487975444324647e+01  2.0835098092508474e+01  2.1150576554889874e+01  2.1418292581206927e+01  2.1630791487753957e+01  2.1785363299957286e+01  2.1882957808603031e+01  2.1927637506117332e+01  2.1926014130074677e+01  2.1886542910291542e+01  2.1818694222596339e+01  2.1732096478690433e+01  2.1635774322616950e+01  2.1537590215858717e+01  2.1443947040211004e+01  2.1359749575352048e+01  2.1288576943857855e+01  2.1232997277052981e+01  2.1194957570498264e+01  2.1176195786777527e+01  2.1178638544920158e+01  2.1204766926587428e+01  2.1257979471653247e+01  2.1343046162002071e+01  2.1466468534855665e+01  2.1634966364026116e+01  2.1845540038248771e+01  2.2045774139153753e+01  2.2079637874034990e+01  2.1554216676152073e+01  2.0612583686203994e+01  1.9946491660127329e+01  2.0235323124376322e+01  2.0688289769571675e+01  2.1131650972086266e+01  2.1526684635995277e+01  2.1861084969675986e+01  2.2129479701655178e+01  2.2330376384499200e+01  2.2465720712932615e+01  2.2540630894320742e+01  2.2562890988338744e+01  2.2542165576502718e+01  2.2489033362201436e+01  2.2414008493657789e+01  2.2326721760050624e+01  2.2235377348121126e+01  2.2146518844010540e+01  2.2065067308275555e+01  2.1994554898339700e+01  2.1937470405027423e+01  2.1895646577028067e+01  2.1870638967054457e+01  2.1864062932806494e+01  2.1877869888620186e+01  2.1914559188680325e+01  2.1977245253316553e+01  2.2068863867624440e+01  2.2187966133166242e+01  2.2314905207544978e+01  2.2372360339069655e+01  2.2196295042270638e+01  2.1433465846002424e+01  2.0375943385329915e+01  2.0063868167312048e+01  2.0461891252699086e+01  2.1024577049193098e+01  2.1555891005241676e+01  2.2021598190106122e+01  2.2412887278821035e+01  2.2726292317925207e+01  2.2961767156701864e+01  2.3122768011988988e+01  2.3216111869711799e+01  2.3251367427111354e+01  2.3239857577771623e+01  2.3193487094412411e+01  2.3123650064734178e+01  2.3040414659286252e+01  2.2952072161861512e+01  2.2865030903632462e+01  2.2783970137073581e+01  2.2712149931901507e+01  2.2651786540350539e+01  2.2604428395911324e+01  2.2571290623706748e+01  2.2553518136581314e+01  2.2552345890491019e+01  2.2569088844870215e+01  2.2604674922024220e+01  2.2657593515170248e+01  2.2717563385021911e+01  2.2750145082234585e+01  2.2661278886470157e+01  2.2293164511824557e+01  2.1330765967253669e+01  2.0188965727784908e+01  2.0340997345757408e+01  2.0843316712242860e+01  2.1505145505856692e+01  2.2113149475607692e+01  2.2638099216377672e+01  2.3074140774905956e+01  2.3419595699708090e+01  2.3676218748361336e+01  2.3849624128802272e+01  2.3949051719973696e+01  2.3986446343355201e+01  2.3975113149081050e+01  2.3928315748982953e+01  2.3858136595748334e+01  2.3774769649196816e+01  2.3686255063666209e+01  2.3598559145424648e+01  2.3515865974673329e+01  2.3440961147408316e+01  2.3375623638946269e+01  2.3320975410163637e+01  2.3277757961238567e+01  2.3246505825869800e+01  2.3227561151502339e+01  2.3220782274949137e+01  2.3224475260503581e+01  2.3232209847161322e+01  2.3225212244261250e+01  2.3157315051725892e+01  2.2925171015936488e+01  2.2385951962300496e+01  2.1253426793274450e+01  2.0044560808690960e+01  2.0790982793316854e+01  2.1389173445400541e+01  2.2136642109366292e+01  2.2807725149583135e+01  2.3378155966078033e+01  2.3844465434566455e+01  2.4206822959644509e+01  2.4469394651609509e+01  2.4640832142731441e+01  2.4733621754639863e+01  2.4762599512367093e+01  2.4743169473344217e+01  2.4689738404533312e+01  2.4614674700425290e+01  2.4527851801174744e+01  2.4436661650703698e+01  2.4346317089007851e+01  2.4260277777156215e+01  2.4180686425014709e+01  2.4108753745716875e+01  2.4045063200524350e+01  2.3989775728119163e+01  2.3942698777549484e+01  2.3903131717451036e+01  2.3869264395932564e+01  2.3836532526291055e+01  2.3793589493950066e+01  2.3714307845792558e+01  2.3544270425220656e+01  2.3176626278631851e+01  2.2487504978060322e+01  2.1205545652921035e+01  1.9936006138212296e+01  2.1424050458426212e+01  2.2107259723666047e+01  2.2924760490442843e+01  2.3643257946260025e+01  2.4243006596895157e+01  2.4722462840153973e+01  2.5084079571729752e+01  2.5335498667015692e+01  2.5489606507168187e+01  2.5563003141688732e+01  2.5573721952492491e+01  2.5539051535684173e+01  2.5474011750190403e+01  2.5390637969318476e+01  2.5297932521613024e+01  2.5202222820189569e+01  2.5107684201071599e+01  2.5016866314788611e+01  2.4931143781876127e+01  2.4851065206058561e+01  2.4776595026637658e+01  2.4707235386950320e+01  2.4641981165055107e+01  2.4578987473210574e+01  2.4514669305512868e+01  2.4441583470246130e+01  2.4343917824280780e+01  2.4189830326980168e+01  2.3919906841462279e+01  2.3427595224295064e+01  2.2608456342827687e+01  2.1189822976442905e+01  1.9858544856973161e+01  2.2248833399064278e+01  2.3004632536297361e+01  2.3874940128281033e+01  2.4623085313691767e+01  2.5233093849140381e+01  2.5705257992340485e+01  2.6045494287504692e+01  2.6266687886913154e+01  2.6387468803923870e+01  2.6429267333422668e+01  2.6413184106153356e+01  2.6357699430198220e+01  2.6277560890539249e+01  2.6183668271486852e+01  2.6083557457011658e+01  2.5982108743609583e+01  2.5882237179453082e+01  2.5785456764777816e+01  2.5692297560921048e+01  2.5602590418012642e+01  2.5515632547788744e+01  2.5430221474426908e+01  2.5344495878029427e+01  2.5255435981910622e+01  2.5157712449450635e+01  2.5041243757031310e+01  2.4886555761754920e+01  2.4657931580145192e+01  2.4293584175114884e+01  2.3689243669332942e+01  2.2758094268228646e+01  2.1208812728729402e+01  1.9809785294288773e+01  2.3273499745718166e+01  2.4088680807383835e+01  2.4993188743104323e+01  2.5750540231556229e+01  2.6347662610188998e+01  2.6787584731068463e+01  2.7082221436876509e+01  2.7252356786023466e+01  2.7323941396850092e+01  2.7323399268242781e+01  2.7274022203121643e+01  2.7194187357107086e+01  2.7097154170564604e+01  2.6991790452684903e+01  2.6883614537907885e+01  2.6775770179016085e+01  2.6669779691105674e+01  2.6566065196324544e+01  2.6464285138825094e+01  2.6363533977891244e+01  2.6262426300939900e+01  2.6159046088191829e+01  2.6050684818203152e+01  2.5933205016035284e+01  2.5799712537938248e+01  2.5637950711463095e+01  2.5425820486445303e+01  2.5125534787983735e+01  2.4674761091955475e+01  2.3972122911629480e+01  2.2945258762792573e+01  2.1265731262854953e+01  1.9789589186605223e+01  2.4506935925663015e+01  2.5368593096673379e+01  2.6287191105872420e+01  2.7028990593658602e+01  2.7583638709109771e+01  2.7960134473993548e+01  2.8181037476462066e+01  2.8278396384024418e+01  2.8286440504811537e+01  2.8235560387459497e+01  2.8149302473676016e+01  2.8044029814865272e+01  2.7930103982260363e+01  2.7813524656940050e+01  2.7697392971243531e+01  2.7582972882261959e+01  2.7470368508905054e+01  2.7358923226075312e+01  2.7247441934172684e+01  2.7134298097006514e+01  2.7017441297514715e+01  2.6894274144638150e+01  2.6761310726914619e+01  2.6613449013568214e+01  2.6442552455682787e+01  2.6234829363107949e+01  2.5966719805077524e+01  2.5599991830922580e+01  2.5072818787874830e+01  2.4286531929308151e+01  2.3179185942723596e+01  2.1365118106883155e+01  1.9800117942706780e+01  2.5960720047345859e+01  2.6857950400556248e+01  2.7767774721917604e+01  2.8461009422444594e+01  2.8933086093017149e+01  2.9206846600486198e+01  2.9322618544476761e+01  2.9326689630914867e+01  2.9260589798818735e+01  2.9155694364310389e+01  2.9032668909917451e+01  2.8903545717583516e+01  2.8774463207702226e+01  2.8647978098421760e+01  2.8524625729073950e+01  2.8403823056181885e+01  2.8284335459043636e+01  2.8164499997879265e+01  2.8042323107152143e+01  2.7915502653533320e+01  2.7781373535505836e+01  2.7636732876675023e+01  2.7477451656611155e+01  2.7297711089344791e+01  2.7088579238538244e+01  2.6835500132718526e+01  2.6514672984052847e+01  2.6088809385386398e+01  2.5497014716719676e+01  2.4642969607939055e+01  2.3470343459441565e+01  2.1513813521839065e+01  1.9846728845000591e+01  2.7654030772921029e+01  2.8579727764687313e+01  2.9450218095229484e+01  3.0045159182668812e+01  3.0378137091097003e+01  3.0500982635047521e+01  3.0479935771284662e+01  3.0375337555000460e+01  3.0231232028006442e+01  3.0074536301832648e+01  2.9919028240846426e+01  2.9770218620715013e+01  2.9629177755292247e+01  2.9494900055736228e+01  2.9365511965298175e+01  2.9238784219258601e+01  2.9112305563822542e+01  2.8983520936718904e+01  2.8849720491859436e+01  2.8707997462500490e+01  2.8555153746094465e+01  2.8387500498858184e+01  2.8200462728883412e+01  2.7987838655657573e+01  2.7740450558058733e+01  2.7443846895237321e+01  2.7075231944193064e+01  2.6599415186416273e+01  2.5956480350538452e+01  2.5052618844742806e+01  2.3831452627999681e+01  2.1722963280043345e+01  1.9940540920258087e+01  2.9626858595777321e+01  3.0575203024321983e+01  3.1352900816502039e+01  3.1767220302919075e+01  3.1882122343287978e+01  3.1800528350033790e+01  3.1617858496156909e+01  3.1400356450996682e+01  3.1184367579098762e+01  3.0984960071167546e+01  3.0805240868290767e+01  3.0642962551712522e+01  3.0494157163861868e+01  3.0354692229538912e+01  3.0220721404234126e+01  3.0088687980360810e+01  2.9955212171121932e+01  2.9816982834750689e+01  2.9670673689454254e+01  2.9512865222807115e+01  2.9339936340127764e+01  2.9147871907111501e+01  2.8931904505928191e+01  2.8685856315108957e+01  2.8400937424258316e+01  2.8063753946431522e+01  2.7653785261940762e+01  2.7138893786528143e+01  2.6460171954242032e+01  2.5527895657774014e+01  2.4279104948070181e+01  2.2012026704450012e+01  2.0103561886337957e+01  3.1972329808202602e+01  3.2915816463240560e+01  3.3485627527565910e+01  3.3580496570238068e+01  3.3376653222328997e+01  3.3045229646785792e+01  3.2695972555822557e+01  3.2379625980887283e+01  3.2109963712827081e+01  3.1883370415673227e+01  3.1690599187720444e+01  3.1522199871998012e+01  3.1370244417378732e+01  3.1228380493184847e+01  3.1091388105914678e+01  3.0954742361558850e+01  3.0814310427020960e+01  3.0666166274777684e+01  3.0506476826369870e+01  3.0331417186715260e+01  3.0137075938084646e+01  2.9919304139681746e+01  2.9673441363884624e+01  2.9393799619021706e+01  2.9072681848360897e+01  2.8698789775959174e+01  2.8255178119047297e+01  2.7713589071814724e+01  2.7016740013398515e+01  2.6083264148653551e+01  2.4836539861525488e+01  2.2415561817436210e+01  2.0376585526545298e+01  3.4901407334248425e+01  3.5704727499055728e+01  3.5809287086059214e+01  3.5369163863496333e+01  3.4748785930387015e+01  3.4160835259099322e+01  3.3677279163662618e+01  3.3299231688164511e+01  3.3004930531837729e+01  3.2770571989330321e+01  3.2576850448019457e+01  3.2409705689811851e+01  3.2259104269548075e+01  3.2117571227615315e+01  3.1979108360311162e+01  3.1838548167966852e+01  3.1691200050481502e+01  3.1532658260707279e+01  3.1358694631261155e+01  3.1165193387332902e+01  3.0948098029793311e+01  3.0703338779644451e+01  3.0426692825929653e+01  3.0113471631094729e+01  2.9757839446888614e+01  2.9351722104042341e+01  2.8883095610335644e+01  2.8328475868774127e+01  2.7634435379796155e+01  2.6736598057504441e+01  2.5537526678357917e+01  2.2991257086233620e+01  2.0826821358885422e+01  3.8823318025605388e+01  3.9016049803445391e+01  3.8133203877783536e+01  3.6896943638715776e+01  3.5843678175807646e+01  3.5080069656807524e+01  3.4544184692306587e+01  3.4160370883280919e+01  3.3874645946905090e+01  3.3651458582281407e+01  3.3467687261845228e+01  3.3308323033835137e+01  3.3163145101663588e+01  3.3024486904046476e+01  3.2886025933992073e+01  3.2742201533453041e+01  3.2587926314222400e+01  3.2418433217261196e+01  3.2229199968722654e+01  3.2015926740865929e+01  3.1774553720062098e+01  3.1501307642457430e+01  3.1192750931413450e+01  3.0845739726160325e+01  3.0457138261510096e+01  3.0023344547719695e+01  2.9538738683096810e+01  2.8986056126232818e+01  2.8320965053904146e+01  2.7510017826772295e+01  2.6427038024068786e+01  2.3819055783235573e+01  2.1542702961242885e+01  4.4262767857279300e+01  4.2634674706529765e+01  3.9920294006351625e+01  3.7781526198089189e+01  3.6518724781379007e+01  3.5789268963107560e+01  3.5317247121277013e+01  3.4982225755905809e+01  3.4731689924845426e+01  3.4534081167196121e+01  3.4368732050087083e+01  3.4222483735094052e+01  3.4086217214965579e+01  3.3952629291240406e+01  3.3815336601781965e+01  3.3668549364992145e+01  3.3506901096067203e+01  3.3325352221956308e+01  3.3119164752887770e+01  3.2883947237008343e+01  3.2615776499315459e+01  3.2311410728978629e+01  3.1968589614708183e+01  3.1586339354829949e+01  3.1165196955166362e+01  3.0707482803002105e+01  3.0215794076125228e+01  2.9681716574351391e+01  2.9078608515429245e+01  2.8419489789968210e+01  2.7536879236563180e+01  2.4957049042838900e+01  2.2581681573282257e+01  5.0956681875863374e+01  4.5506814487530427e+01  4.0186309273861859e+01  3.7671256648204590e+01  3.681280238